[Molden Format]
made by pyscf v[2.0.1]
[Atoms] (AU)
Fe   1   26     0.00000000000000     0.00000000000000     0.00000000000000
C   2   6    -1.34831958987717    -1.85580365090299    -3.11426865328322
C   3   6     1.34831958987717    -1.85580365090299    -3.11426865328322
C   4   6     2.18162644984825     0.70885327685948    -3.11426865328322
C   5   6     0.00000000000000     2.29389885836091    -3.11426865328322
C   6   6    -2.18162644984825     0.70885327685948    -3.11426865328322
H   7   1    -2.54677255971959    -3.50533235695297    -3.09576445507148
H   8   1     2.54677255971959    -3.50533235695297    -3.09576445507148
H   9   1     4.12076513311844     1.33891820240746    -3.09576445507148
H   10   1     0.00000000000000     4.33283019881713    -3.09576445507148
H   11   1    -4.12076513311844     1.33891820240746    -3.09576445507148
C   12   6    -1.34831958987717    -1.85580365090299     3.11426865328322
C   13   6    -2.18162644984825     0.70885327685948     3.11426865328322
C   14   6     0.00000000000000     2.29389885836091     3.11426865328322
C   15   6     2.18162644984825     0.70885327685948     3.11426865328322
C   16   6     1.34831958987717    -1.85580365090299     3.11426865328322
H   17   1    -2.54677255971959    -3.50533235695297     3.09576445507148
H   18   1    -4.12076513311844     1.33891820240746     3.09576445507148
H   19   1     0.00000000000000     4.33283019881713     3.09576445507148
H   20   1     4.12076513311844     1.33891820240746     3.09576445507148
H   21   1     2.54677255971959    -3.50533235695297     3.09576445507148
[GTO]
1 0
 s   19 1.00
               4316265  0.00013999985101555
              646342.4  0.00040499956900927
              147089.7  0.0011189988091886
              41661.52  0.0029069969064443
              13590.77  0.0075709919431338
               4905.75   0.019817978910187
              1912.746   0.050733946010164
              792.6043    0.11872887365161
              344.8065    0.23116375400113
              155.8999    0.31932166018562
              72.23091    0.23364775135772
              32.72506   0.074021921227665
              15.66762   0.090951903211188
              7.503483   0.088897905397003
              3.312223   0.014301984780174
              1.558471  -0.00038699958816441
              0.683914  7.9999914866029e-06
              0.146757  -2.4999973395634e-05
              0.070583  3.1999965946411e-05
 s   19 1.00
               4316265  -7.1999772729672e-05
              646342.4  -0.00020899934028474
              147089.7  -0.00057899817236778
              41661.52  -0.0015059952462623
              13590.77  -0.0039389875664191
               4905.75   -0.01039596718469
              1912.746  -0.027073914540044
              792.6043  -0.065776792372773
              344.8065   -0.13908156098317
              155.8999   -0.23014927352408
              72.23091   -0.22966227506132
              32.72506   0.046090854512268
              15.66762    0.51504937422487
              7.503483    0.48717346221636
              3.312223   0.084379733651802
              1.558471  -0.0059109813417374
              0.683914  -4.3999861112577e-05
              0.146757  -0.00048699846276875
              0.070583  0.00043699862059537
 s   19 1.00
               4316265  1.7010677802068e-05
              646342.4  4.9030777194197e-05
              147089.7  0.00013508479431054
              41661.52  0.00035222109331341
              13590.77  0.0009235797418417
               4905.75  0.0024535401159218
              1912.746  0.0064550519118319
              792.6043   0.016116116275301
              344.8065   0.035764449764795
              155.8999   0.065569158530231
              72.23091   0.074476749929879
              32.72506  -0.025727149233469
              15.66762   -0.30883886177761
              7.503483   -0.44682447696746
              3.312223    0.14907857837301
              1.558471    0.72084748442476
              0.683914    0.38994277165355
              0.146757   0.019196049585581
              0.070583  -0.0070274111884662
 s   19 1.00
               4316265  -5.3110130885542e-06
              646342.4  -1.4605285993524e-05
              147089.7  -3.8504844892018e-05
              41661.52  -0.00010223700195467
              13590.77  -0.00026687840769985
               4905.75  -0.00071034800059412
              1912.746  -0.0018694766071711
              792.6043  -0.0046710360113834
              344.8065  -0.010375064068491
              155.8999  -0.019082470027175
              72.23091  -0.021752581857446
              32.72506  0.0074925117146778
              15.66762   0.094563915794979
              7.503483    0.14313180273653
              3.312223  -0.058769015331396
              1.558471   -0.30007091175004
              0.683914   -0.31551135455174
              0.146757    0.39537836937741
              0.070583    0.75084049213453
 s   19 1.00
               4316265  -7.2700773333707e-06
              646342.4  -2.1810232000112e-05
              147089.7  -6.0237783619357e-05
              41661.52  -0.00016098028381035
              13590.77  -0.00040816291314495
               4905.75  -0.0011434793062916
              1912.746  -0.0027969026083953
              792.6043  -0.0076896646537538
              344.8065   -0.01504282858522
              155.8999  -0.033081967614265
              72.23091  -0.026330142936516
              32.72506  -0.0081912999897563
              15.66762    0.19885738671721
              7.503483    0.15396154343622
              3.312223   0.052719485074175
              1.558471    -1.0513009571993
              0.683914     0.3555472863184
              0.146757     1.9289239212343
              0.070583    -1.1047183696975
 s   19 1.00
               4316265  -7.2610126126517e-06
              646342.4  -2.1783037837955e-05
              147089.7  -5.9903354054376e-05
              41661.52  -0.00015913719309395
              13590.77  -0.00040177603123339
               4905.75  -0.0011309027144205
              1912.746  -0.0027482932738887
              792.6043  -0.0076246683276687
              344.8065  -0.014777975919899
              155.8999  -0.033069071775553
              72.23091  -0.025740894796235
              32.72506  -0.009674694221974
              15.66762    0.20933741396029
              7.503483    0.19401486209444
              3.312223   -0.12230268119435
              1.558471     -1.307389492068
              0.683914     1.5898507487971
              0.146757   -0.28768858072587
              0.070583   -0.94793306267867
 s    1 1.00
              0.031449                   1
 p   15 1.00
              17745.69  0.00012299998250278
              4200.721  0.00056599991948432
              1364.429   0.002607999629002
              522.0806   0.010294998535497
              221.4595   0.034750995056537
              100.9096   0.096689986245476
              48.40115    0.21002997012242
              23.98536    0.33245695270671
               12.1825    0.33077095294655
              6.242298    0.15473297798864
              3.110944    0.02096399701779
              1.509958  -0.0023459996662725
              0.710845  -0.0018539997362614
              0.272598  -0.00031699995490553
              0.103972  2.9999995732385e-05
 p   15 1.00
              17745.69  -4.3004674561854e-05
              4200.721  -0.00020002174214816
              1364.429  -0.00092310034001375
              522.0806  -0.0036683987509972
              221.4595  -0.012540363123979
              100.9096  -0.035851897062636
              48.40115  -0.080830786219492
              23.98536   -0.13471164301065
               12.1825   -0.13692688380494
              6.242298   0.033716664965204
              3.110944    0.33570649093436
              1.509958    0.45554551730759
              0.710845    0.28179063033832
              0.272598   0.045154908289947
              0.103972  -0.0031653440694946
 p   15 1.00
              17745.69  1.2588884810417e-05
              4200.721  6.154565907315e-05
              1364.429  0.00028115176076598
              522.0806  0.0011190119831482
              221.4595  0.0038298185123246
              100.9096   0.010977507554684
              48.40115   0.024812691961332
              23.98536   0.041611859358344
               12.1825   0.042507068944862
              6.242298  -0.015057704998238
              3.110944   -0.12265630223785
              1.509958   -0.17969933684381
              0.710845   -0.10350301338129
              0.272598    0.30137090853649
              0.103972    0.80010056177584
 p   15 1.00
              17745.69  1.4521046691587e-05
              4200.721  6.8456362974625e-05
              1364.429  0.00031427693911078
              522.0806  0.0012643682797889
              221.4595  0.0042733365978099
              100.9096   0.012397862221753
              48.40115   0.027610733066432
              23.98536   0.047399808054203
               12.1825   0.046709021118732
              6.242298  -0.013495238464589
              3.110944   -0.14663664114451
              1.509958   -0.20137372664845
              0.710845   -0.10555763727163
              0.272598    0.48527678495091
              0.103972     0.6474499088378
 p   15 1.00
              17745.69  3.1575163159924e-05
              4200.721   0.000141035728781
              1364.429  0.00069360108407967
              522.0806  0.0025754808084112
              221.4595  0.0094872840241186
              100.9096   0.025073837065296
              48.40115   0.062480932860858
              23.98536   0.092178426318206
               12.1825    0.12870668007248
              6.242298  -0.071688250438292
              3.110944   -0.37038403140398
              1.509958   -0.65645395712746
              0.710845    0.88562859635307
              0.272598    0.83365798280271
              0.103972   -0.96568426502874
 p    1 1.00
              0.038166                   1
 d    7 1.00
               114.884  0.0035899954580237
               33.8878   0.025969531130381
                12.373   0.099972022441914
               4.99925     0.2418256311941
               2.07043    0.36239337219941
              0.828183     0.3688059660116
              0.307547    0.24272414647861
 d    7 1.00
               114.884  -0.0050372407451071
               33.8878  -0.036469571277524
                12.373   -0.14425566264215
               4.99925   -0.35276071038354
               2.07043   -0.41005415215405
              0.828183   0.067312327431151
              0.307547    0.72567943423139
 d    7 1.00
               114.884  0.0067596091341507
               33.8878   0.049415196284741
                12.373    0.20391783872816
               4.99925    0.48431064518287
               2.07043    0.14166969695938
              0.828183   -0.90796378430765
              0.307547  -0.051062725075986
 d    1 1.00
              0.099455                   1
 f    1 1.00
                3.2243                   1
 f    1 1.00
                0.7758                   1
 g    1 1.00
                2.0515                   1

2 0
 s    8 1.00
                  8236  0.00069173858650978
                  1235  0.0043703537247225
                 280.8   0.021816119366866
                 79.27   0.083950220205516
                 25.59    0.24011817356576
                 8.997    0.44358431458639
                 3.319    0.35315573575216
                0.3643  -0.009146945541375
 s    8 1.00
                  8236  -0.00025110442737271
                  1235  -0.0015910810636848
                 280.8  -0.0079990227656699
                 79.27  -0.031676345632669
                 25.59   -0.09708618168087
                 8.997   -0.22067456759301
                 3.319   -0.29559943680439
                0.3643     1.0403473644414
 s    1 1.00
                0.9059                   1
 s    1 1.00
                0.1285                   1
 p    3 1.00
                 18.71   0.039543715600555
                 4.133    0.24417088175427
                   1.2    0.81539097736405
 p    1 1.00
                0.3827                   1
 p    1 1.00
                0.1209                   1
 d    1 1.00
                 1.097                   1
 d    1 1.00
                 0.318                   1
 f    1 1.00
                 0.761                   1

3 0
 s    8 1.00
                  8236  0.00069173858650978
                  1235  0.0043703537247225
                 280.8   0.021816119366866
                 79.27   0.083950220205516
                 25.59    0.24011817356576
                 8.997    0.44358431458639
                 3.319    0.35315573575216
                0.3643  -0.009146945541375
 s    8 1.00
                  8236  -0.00025110442737271
                  1235  -0.0015910810636848
                 280.8  -0.0079990227656699
                 79.27  -0.031676345632669
                 25.59   -0.09708618168087
                 8.997   -0.22067456759301
                 3.319   -0.29559943680439
                0.3643     1.0403473644414
 s    1 1.00
                0.9059                   1
 s    1 1.00
                0.1285                   1
 p    3 1.00
                 18.71   0.039543715600555
                 4.133    0.24417088175427
                   1.2    0.81539097736405
 p    1 1.00
                0.3827                   1
 p    1 1.00
                0.1209                   1
 d    1 1.00
                 1.097                   1
 d    1 1.00
                 0.318                   1
 f    1 1.00
                 0.761                   1

4 0
 s    8 1.00
                  8236  0.00069173858650978
                  1235  0.0043703537247225
                 280.8   0.021816119366866
                 79.27   0.083950220205516
                 25.59    0.24011817356576
                 8.997    0.44358431458639
                 3.319    0.35315573575216
                0.3643  -0.009146945541375
 s    8 1.00
                  8236  -0.00025110442737271
                  1235  -0.0015910810636848
                 280.8  -0.0079990227656699
                 79.27  -0.031676345632669
                 25.59   -0.09708618168087
                 8.997   -0.22067456759301
                 3.319   -0.29559943680439
                0.3643     1.0403473644414
 s    1 1.00
                0.9059                   1
 s    1 1.00
                0.1285                   1
 p    3 1.00
                 18.71   0.039543715600555
                 4.133    0.24417088175427
                   1.2    0.81539097736405
 p    1 1.00
                0.3827                   1
 p    1 1.00
                0.1209                   1
 d    1 1.00
                 1.097                   1
 d    1 1.00
                 0.318                   1
 f    1 1.00
                 0.761                   1

5 0
 s    8 1.00
                  8236  0.00069173858650978
                  1235  0.0043703537247225
                 280.8   0.021816119366866
                 79.27   0.083950220205516
                 25.59    0.24011817356576
                 8.997    0.44358431458639
                 3.319    0.35315573575216
                0.3643  -0.009146945541375
 s    8 1.00
                  8236  -0.00025110442737271
                  1235  -0.0015910810636848
                 280.8  -0.0079990227656699
                 79.27  -0.031676345632669
                 25.59   -0.09708618168087
                 8.997   -0.22067456759301
                 3.319   -0.29559943680439
                0.3643     1.0403473644414
 s    1 1.00
                0.9059                   1
 s    1 1.00
                0.1285                   1
 p    3 1.00
                 18.71   0.039543715600555
                 4.133    0.24417088175427
                   1.2    0.81539097736405
 p    1 1.00
                0.3827                   1
 p    1 1.00
                0.1209                   1
 d    1 1.00
                 1.097                   1
 d    1 1.00
                 0.318                   1
 f    1 1.00
                 0.761                   1

6 0
 s    8 1.00
                  8236  0.00069173858650978
                  1235  0.0043703537247225
                 280.8   0.021816119366866
                 79.27   0.083950220205516
                 25.59    0.24011817356576
                 8.997    0.44358431458639
                 3.319    0.35315573575216
                0.3643  -0.009146945541375
 s    8 1.00
                  8236  -0.00025110442737271
                  1235  -0.0015910810636848
                 280.8  -0.0079990227656699
                 79.27  -0.031676345632669
                 25.59   -0.09708618168087
                 8.997   -0.22067456759301
                 3.319   -0.29559943680439
                0.3643     1.0403473644414
 s    1 1.00
                0.9059                   1
 s    1 1.00
                0.1285                   1
 p    3 1.00
                 18.71   0.039543715600555
                 4.133    0.24417088175427
                   1.2    0.81539097736405
 p    1 1.00
                0.3827                   1
 p    1 1.00
                0.1209                   1
 d    1 1.00
                 1.097                   1
 d    1 1.00
                 0.318                   1
 f    1 1.00
                 0.761                   1

7 0
 s    3 1.00
                 33.87   0.025531286985474
                 5.095    0.19038333652986
                 1.159    0.85213406274173
 s    1 1.00
                0.3258                   1
 s    1 1.00
                0.1027                   1
 p    1 1.00
                 1.407                   1
 p    1 1.00
                 0.388                   1
 d    1 1.00
                 1.057                   1

8 0
 s    3 1.00
                 33.87   0.025531286985474
                 5.095    0.19038333652986
                 1.159    0.85213406274173
 s    1 1.00
                0.3258                   1
 s    1 1.00
                0.1027                   1
 p    1 1.00
                 1.407                   1
 p    1 1.00
                 0.388                   1
 d    1 1.00
                 1.057                   1

9 0
 s    3 1.00
                 33.87   0.025531286985474
                 5.095    0.19038333652986
                 1.159    0.85213406274173
 s    1 1.00
                0.3258                   1
 s    1 1.00
                0.1027                   1
 p    1 1.00
                 1.407                   1
 p    1 1.00
                 0.388                   1
 d    1 1.00
                 1.057                   1

10 0
 s    3 1.00
                 33.87   0.025531286985474
                 5.095    0.19038333652986
                 1.159    0.85213406274173
 s    1 1.00
                0.3258                   1
 s    1 1.00
                0.1027                   1
 p    1 1.00
                 1.407                   1
 p    1 1.00
                 0.388                   1
 d    1 1.00
                 1.057                   1

11 0
 s    3 1.00
                 33.87   0.025531286985474
                 5.095    0.19038333652986
                 1.159    0.85213406274173
 s    1 1.00
                0.3258                   1
 s    1 1.00
                0.1027                   1
 p    1 1.00
                 1.407                   1
 p    1 1.00
                 0.388                   1
 d    1 1.00
                 1.057                   1

12 0
 s    8 1.00
                  8236  0.00069173858650978
                  1235  0.0043703537247225
                 280.8   0.021816119366866
                 79.27   0.083950220205516
                 25.59    0.24011817356576
                 8.997    0.44358431458639
                 3.319    0.35315573575216
                0.3643  -0.009146945541375
 s    8 1.00
                  8236  -0.00025110442737271
                  1235  -0.0015910810636848
                 280.8  -0.0079990227656699
                 79.27  -0.031676345632669
                 25.59   -0.09708618168087
                 8.997   -0.22067456759301
                 3.319   -0.29559943680439
                0.3643     1.0403473644414
 s    1 1.00
                0.9059                   1
 s    1 1.00
                0.1285                   1
 p    3 1.00
                 18.71   0.039543715600555
                 4.133    0.24417088175427
                   1.2    0.81539097736405
 p    1 1.00
                0.3827                   1
 p    1 1.00
                0.1209                   1
 d    1 1.00
                 1.097                   1
 d    1 1.00
                 0.318                   1
 f    1 1.00
                 0.761                   1

13 0
 s    8 1.00
                  8236  0.00069173858650978
                  1235  0.0043703537247225
                 280.8   0.021816119366866
                 79.27   0.083950220205516
                 25.59    0.24011817356576
                 8.997    0.44358431458639
                 3.319    0.35315573575216
                0.3643  -0.009146945541375
 s    8 1.00
                  8236  -0.00025110442737271
                  1235  -0.0015910810636848
                 280.8  -0.0079990227656699
                 79.27  -0.031676345632669
                 25.59   -0.09708618168087
                 8.997   -0.22067456759301
                 3.319   -0.29559943680439
                0.3643     1.0403473644414
 s    1 1.00
                0.9059                   1
 s    1 1.00
                0.1285                   1
 p    3 1.00
                 18.71   0.039543715600555
                 4.133    0.24417088175427
                   1.2    0.81539097736405
 p    1 1.00
                0.3827                   1
 p    1 1.00
                0.1209                   1
 d    1 1.00
                 1.097                   1
 d    1 1.00
                 0.318                   1
 f    1 1.00
                 0.761                   1

14 0
 s    8 1.00
                  8236  0.00069173858650978
                  1235  0.0043703537247225
                 280.8   0.021816119366866
                 79.27   0.083950220205516
                 25.59    0.24011817356576
                 8.997    0.44358431458639
                 3.319    0.35315573575216
                0.3643  -0.009146945541375
 s    8 1.00
                  8236  -0.00025110442737271
                  1235  -0.0015910810636848
                 280.8  -0.0079990227656699
                 79.27  -0.031676345632669
                 25.59   -0.09708618168087
                 8.997   -0.22067456759301
                 3.319   -0.29559943680439
                0.3643     1.0403473644414
 s    1 1.00
                0.9059                   1
 s    1 1.00
                0.1285                   1
 p    3 1.00
                 18.71   0.039543715600555
                 4.133    0.24417088175427
                   1.2    0.81539097736405
 p    1 1.00
                0.3827                   1
 p    1 1.00
                0.1209                   1
 d    1 1.00
                 1.097                   1
 d    1 1.00
                 0.318                   1
 f    1 1.00
                 0.761                   1

15 0
 s    8 1.00
                  8236  0.00069173858650978
                  1235  0.0043703537247225
                 280.8   0.021816119366866
                 79.27   0.083950220205516
                 25.59    0.24011817356576
                 8.997    0.44358431458639
                 3.319    0.35315573575216
                0.3643  -0.009146945541375
 s    8 1.00
                  8236  -0.00025110442737271
                  1235  -0.0015910810636848
                 280.8  -0.0079990227656699
                 79.27  -0.031676345632669
                 25.59   -0.09708618168087
                 8.997   -0.22067456759301
                 3.319   -0.29559943680439
                0.3643     1.0403473644414
 s    1 1.00
                0.9059                   1
 s    1 1.00
                0.1285                   1
 p    3 1.00
                 18.71   0.039543715600555
                 4.133    0.24417088175427
                   1.2    0.81539097736405
 p    1 1.00
                0.3827                   1
 p    1 1.00
                0.1209                   1
 d    1 1.00
                 1.097                   1
 d    1 1.00
                 0.318                   1
 f    1 1.00
                 0.761                   1

16 0
 s    8 1.00
                  8236  0.00069173858650978
                  1235  0.0043703537247225
                 280.8   0.021816119366866
                 79.27   0.083950220205516
                 25.59    0.24011817356576
                 8.997    0.44358431458639
                 3.319    0.35315573575216
                0.3643  -0.009146945541375
 s    8 1.00
                  8236  -0.00025110442737271
                  1235  -0.0015910810636848
                 280.8  -0.0079990227656699
                 79.27  -0.031676345632669
                 25.59   -0.09708618168087
                 8.997   -0.22067456759301
                 3.319   -0.29559943680439
                0.3643     1.0403473644414
 s    1 1.00
                0.9059                   1
 s    1 1.00
                0.1285                   1
 p    3 1.00
                 18.71   0.039543715600555
                 4.133    0.24417088175427
                   1.2    0.81539097736405
 p    1 1.00
                0.3827                   1
 p    1 1.00
                0.1209                   1
 d    1 1.00
                 1.097                   1
 d    1 1.00
                 0.318                   1
 f    1 1.00
                 0.761                   1

17 0
 s    3 1.00
                 33.87   0.025531286985474
                 5.095    0.19038333652986
                 1.159    0.85213406274173
 s    1 1.00
                0.3258                   1
 s    1 1.00
                0.1027                   1
 p    1 1.00
                 1.407                   1
 p    1 1.00
                 0.388                   1
 d    1 1.00
                 1.057                   1

18 0
 s    3 1.00
                 33.87   0.025531286985474
                 5.095    0.19038333652986
                 1.159    0.85213406274173
 s    1 1.00
                0.3258                   1
 s    1 1.00
                0.1027                   1
 p    1 1.00
                 1.407                   1
 p    1 1.00
                 0.388                   1
 d    1 1.00
                 1.057                   1

19 0
 s    3 1.00
                 33.87   0.025531286985474
                 5.095    0.19038333652986
                 1.159    0.85213406274173
 s    1 1.00
                0.3258                   1
 s    1 1.00
                0.1027                   1
 p    1 1.00
                 1.407                   1
 p    1 1.00
                 0.388                   1
 d    1 1.00
                 1.057                   1

20 0
 s    3 1.00
                 33.87   0.025531286985474
                 5.095    0.19038333652986
                 1.159    0.85213406274173
 s    1 1.00
                0.3258                   1
 s    1 1.00
                0.1027                   1
 p    1 1.00
                 1.407                   1
 p    1 1.00
                 0.388                   1
 d    1 1.00
                 1.057                   1

21 0
 s    3 1.00
                 33.87   0.025531286985474
                 5.095    0.19038333652986
                 1.159    0.85213406274173
 s    1 1.00
                0.3258                   1
 s    1 1.00
                0.1027                   1
 p    1 1.00
                 1.407                   1
 p    1 1.00
                 0.388                   1
 d    1 1.00
                 1.057                   1

[5d]
[7f]
[9g]

[MO]
 Sym= A
 Ene=               0
 Spin= Alpha
 Occup=    1.00000
   1    -2.0751118517001e-07
   2    -6.2373054650094e-07
   3    -2.8914083445939e-06
   4    1.8291906227639e-05
   5    -1.0403025190561e-06
   6    3.3868192748144e-07
   7    -7.8609924096653e-07
   8    -0.0085405049912133
   9    1.1238307239785e-06
  10    -6.7428052315825e-06
  11     -0.23127855511202
  12    3.2975425514604e-05
  13    -0.00017187131685074
  14     -0.25624105224365
  15    3.3586697169826e-05
  16    3.7998315721589e-05
  17       0.3172315204346
  18    -4.1712744929945e-05
  19    -1.1097550045812e-05
  20    -0.0045934102074855
  21    6.0140618477164e-07
  22    2.1335521327962e-06
  23     0.048362100367828
  24    -6.4238273763429e-06
  25    -2.1793658227852e-07
  26    2.6025041448177e-06
  27    7.0120719328945e-05
  28    7.2032266596417e-06
  29    5.4994377569807e-05
  30    0.00018890667825781
  31    5.2523109523925e-07
  32    -9.5126394140004e-07
  33    -1.0377379730676e-06
  34    -5.9191744783437e-06
  35    -1.6831993750551e-05
  36    1.886745808054e-07
  37    -1.0119132077552e-07
  38    -1.3892857157638e-07
  39    -4.1075564698748e-07
  40    -9.1784066536014e-07
  41     2.63197246434e-06
  42    -1.0519448485544e-06
  43    -2.7088809707833e-07
  44    2.0562134211651e-06
  45    8.546198729274e-06
  46    -1.2174127681897e-06
  47    0.0013817355373698
  48    -1.8470083480574e-07
  49    -4.6666438907073e-08
  50    4.7352908045251e-07
  51    -7.4452220642285e-08
  52    -3.2303939964105e-08
  53    -1.9437092796288e-06
  54    0.0079609200285769
  55    -1.0244482941805e-06
  56    -2.5405651291493e-08
  57    2.0529040988794e-07
  58    1.3850004877761e-07
  59    2.6567132851109e-09
  60    -2.9728090165439e-09
  61    8.9715809642388e-08
  62    -8.8686222585609e-09
  63    7.5268252536089e-08