 &FCI NORB=  15,NELEC=18,MS2=0,
  ORBSYM=1,1,1,1,1,1,1,1,1,1,1,1,1,1,1,
  ISYM=1,
 &END
 0.2570885538392406    1    1    1    1
 4.419401288388166e-08    1    1    2    1
 0.2335140126789944    1    1    2    2
 7.042639209870545e-06    1    1    3    1
 -5.873177908154082e-05    1    1    3    2
 0.2539754257129502    1    1    3    3
 -1.133103708986147e-05    1    1    4    1
 5.03223279086205e-05    1    1    4    2
 -0.002529684089718778    1    1    4    3
 0.2510310796208322    1    1    4    4
 -1.548593784851671e-05    1    1    5    1
 1.076876117662442e-06    1    1    5    2
 -9.871779196478608e-06    1    1    5    3
 4.855318750970477e-06    1    1    5    4
 0.2656342075990857    1    1    5    5
 5.773661987852759e-08    1    1    6    1
 1.297175846490251e-05    1    1    6    2
 1.906378010074609e-06    1    1    6    3
 -4.716870992009867e-06    1    1    6    4
 1.043296284081101e-06    1    1    6    5
 0.2433578119840389    1    1    6    6
 7.333013578779789e-06    1    1    7    1
 -0.0004068540371596825    1    1    7    2
 0.01196637868892089    1    1    7    3
 -0.01173317307004135    1    1    7    4
 8.68142371673285e-06    1    1    7    5
 6.093964855400529e-06    1    1    7    6
 0.3072252511611764    1    1    7    7
 5.417005304598875e-06    1    1    8    1
 0.001809344095649059    1    1    8    2
 0.005793222428617571    1    1    8    3
 5.643224597450935e-06    1    1    8    4
 -3.110941573962559e-06    1    1    8    5
 2.282449524985096e-07    1    1    8    6
 -0.001233523245101125    1    1    8    7
 0.3020483080353047    1    1    8    8
 0.001825872092545397    1    1    9    1
 -8.172333525484583e-07    1    1    9    2
 -9.605753498153182e-06    1    1    9    3
 -4.166240377962341e-07    1    1    9    4
 -5.498562805894818e-07    1    1    9    5
 3.50834454737729e-06    1    1    9    6
 3.037419921320061e-06    1    1    9    7
 1.223309998847106e-06    1    1    9    8
 0.3020429901231165    1    1    9    9
 -2.823041280602956e-07    1    1   10    1
 -1.223908149576317e-06    1    1   10    2
 -2.178696032580725e-06    1    1   10    3
 1.959852181892001e-06    1    1   10    4
 -0.02019786740947628    1    1   10    5
 1.481384799320251e-06    1    1   10    6
 2.583935133789498e-06    1    1   10    7
 1.650915909347077e-06    1    1   10    8
 4.116579755401211e-08    1    1   10    9
 0.3060094249582792    1    1   10   10
 3.959732845385539e-07    1    1   11    1
 3.975204395371967e-06    1    1   11    2
 3.097506260508586e-06    1    1   11    3
 -1.027354765154463e-05    1    1   11    4
 3.44248023231336e-07    1    1   11    5
 0.02590377443867745    1    1   11    6
 1.318473942817246e-06    1    1   11    7
 -7.74728791272058e-08    1    1   11    8
 2.057386295886982e-06    1    1   11    9
 -1.255711509869611e-06    1    1   11   10
 0.2958570690485561    1    1   11   11
 0.006526793253131514    1    1   12    1
 1.154856095135852e-05    1    1   12    2
 8.860652592653629e-06    1    1   12    3
 1.104007208034633e-06    1    1   12    4
 -1.764187126719087e-07    1    1   12    5
 5.757515294990698e-06    1    1   12    6
 4.435144927129414e-07    1    1   12    7
 -3.291829000372957e-05    1    1   12    8
 -0.02260363696542627    1    1   12    9
 1.307235380791335e-06    1    1   12   10
 -3.955595135355214e-06    1    1   12   11
 0.2555890181041717    1    1   12   12
 3.965787385291225e-06    1    1   13    1
 -0.006556835639542725    1    1   13    2
 -0.01446080667031586    1    1   13    3
 -3.584673882689286e-06    1    1   13    4
 5.444962245682071e-06    1    1   13    5
 6.716170615696411e-07    1    1   13    6
 0.003084218392679421    1    1   13    7
 0.02259673380951779    1    1   13    8
 -3.685100637788629e-05    1    1   13    9
 4.841432987028356e-06    1    1   13   10
 2.485917946356284e-06    1    1   13   11
 -2.056936143878733e-06    1    1   13   12
 0.2555862711085052    1    1   13   13
 3.237640258327377e-06    1    1   14    1
 7.831802316981353e-06    1    1   14    2
 -1.055082538211141e-05    1    1   14    3
 -0.0002721133669528372    1    1   14    4
 -0.008240507181732229    1    1   14    5
 0.0001443195939595359    1    1   14    6
 -4.654033511352107e-05    1    1   14    7
 3.048330673687503e-06    1    1   14    8
 1.660208773169441e-06    1    1   14    9
 -0.003781434245950171    1    1   14   10
 -6.611838647875558e-05    1    1   14   11
 1.063793779483568e-05    1    1   14   12
 -5.390049295140318e-06    1    1   14   13
 0.2485879999462949    1    1   14   14
 -1.024719813651402e-05    1    1   15    1
 -2.630953834222276e-05    1    1   15    2
 0.000619338227692042    1    1   15    3
 0.01648922787694786    1    1   15    4
 -0.0001366289834405236    1    1   15    5
 -0.008235144396717893    1    1   15    6
 0.002906410215903067    1    1   15    7
 -3.192439496046279e-06    1    1   15    8
 -1.917798765191294e-06    1    1   15    9
 -6.386862770215805e-05    1    1   15   10
 0.003777494273962489    1    1   15   11
 -5.176989383167156e-06    1    1   15   12
 1.218459123666915e-05    1    1   15   13
 -3.624539357976065e-06    1    1   15   14
 0.248588923357908    1    1   15   15
 4.419401287853688e-08    2    1    1    1
 0.01178739023462334    2    1    2    1
 1.335944474952116e-07    2    1    2    2
 6.868907836836442e-05    2    1    3    1
 1.41938747177055e-06    2    1    3    2
 -1.83464600432566e-06    2    1    3    3
 -3.996347811524342e-05    2    1    4    1
 -2.970688975775053e-06    2    1    4    2
 1.722804374600857e-06    2    1    4    3
 -3.096599674103061e-07    2    1    4    4
 1.386251407114212e-06    2    1    5    1
 -1.958370779623839e-06    2    1    5    2
 -4.355672678143613e-05    2    1    5    3
 7.36367761316018e-05    2    1    5    4
 1.532892039405513e-06    2    1    5    5
 1.312407582069498e-06    2    1    6    1
 -1.331060230554905e-06    2    1    6    2
 5.233865223673794e-06    2    1    6    3
 -2.689198016889658e-06    2    1    6    4
 -0.0111382253697554    2    1    6    5
 -1.596822243062993e-06    2    1    6    6
 3.261704528927773e-05    2    1    7    1
 -2.116357562493367e-06    2    1    7    2
 -4.221612080279318e-07    2    1    7    3
 -1.33729319276482e-07    2    1    7    4
 3.630684354988229e-05    2    1    7    5
 -1.012517744361752e-06    2    1    7    6
 -9.672300949537135e-07    2    1    7    7
 0.001831482966629875    2    1    8    1
 -1.407779967551529e-06    2    1    8    2
 5.626071170097636e-06    2    1    8    3
 5.581127946023593e-07    2    1    8    4
 -3.249694715490303e-06    2    1    8    5
 -1.608663091624778e-06    2    1    8    6
 -1.513856515777377e-06    2    1    8    7
 -1.031681785186625e-06    2    1    8    8
 3.668130836068438e-08    2    1    9    1
 -0.001789919369050203    2    1    9    2
 0.005796543751463465    2    1    9    3
 -1.528294138724001e-06    2    1    9    4
 -9.138181114723028e-07    2    1    9    5
 3.029738995355565e-06    2    1    9    6
 -0.00124794552925364    2    1    9    7
 1.894734909818264e-06    2    1    9    8
 -2.02153033727316e-07    2    1    9    9
 8.918402870807906e-07    2    1   10    1
 -7.459243141483534e-07    2    1   10    2
 -1.664586889745688e-05    2    1   10    3
 3.040618864394673e-05    2    1   10    4
 1.056820329358685e-06    2    1   10    5
 -0.00285328391294852    2    1   10    6
 -2.362331487343531e-05    2    1   10    7
 -2.652376710007517e-05    2    1   10    8
 1.079478869524208e-06    2    1   10    9
 2.726188936179207e-07    2    1   10   10
 -1.215029898655323e-06    2    1   11    1
 3.185324761526788e-07    2    1   11    2
 -2.331867434623342e-06    2    1   11    3
 1.27347231953195e-06    2    1   11    4
 0.00285354739278959    2    1   11    5
 5.54043570132268e-08    2    1   11    6
 -1.722310335613055e-06    2    1   11    7
 -1.144847668303447e-06    2    1   11    8
 -2.568596191490467e-05    2    1   11    9
 0.005076464611331121    2    1   11   10
 -1.990419691974117e-06    2    1   11   11
 9.827115668586155e-06    2    1   12    1
 -0.006454473449459631    2    1   12    2
 0.01446759316164699    2    1   12    3
 -3.850946438407367e-06    2    1   12    4
 -2.021011168059119e-06    2    1   12    5
 3.255866780139342e-05    2    1   12    6
 -0.003140686015634248    2    1   12    7
 8.30750078753347e-06    2    1   12    8
 1.369369809273033e-06    2    1   12    9
 -1.932416950554652e-06    2    1   12   10
 2.63522869011195e-06    2    1   12   11
 -4.367643915517703e-07    2    1   12   12
 -0.006581397147972946    2    1   13    1
 -5.709706736268082e-06    2    1   13    2
 7.240947434382588e-06    2    1   13    3
 -6.609009836218464e-07    2    1   13    4
 3.301719692908262e-05    2    1   13    5
 3.388220435171909e-06    2    1   13    6
 -5.94163559296611e-07    2    1   13    7
 -3.801968963547602e-07    2    1   13    8
 -8.14830685770863e-06    2    1   13    9
 -1.718699212314946e-06    2    1   13   10
 -1.938579890101059e-06    2    1   13   11
 -3.132021570251346e-05    2    1   13   12
 7.944265109248477e-07    2    1   13   13
 6.463579766058698e-06    2    1   14    1
 5.482811363160481e-05    2    1   14    2
 -0.0006183331763551245    2    1   14    3
 -0.01648451199457339    2    1   14    4
 -0.0001426261539792284    2    1   14    5
 -0.008188936750717669    2    1   14    6
 -0.002904891267574054    2    1   14    7
 7.600437252095407e-06    2    1   14    8
 -1.297603980811173e-06    2    1   14    9
 -6.488515489690963e-05    2    1   14   10
 0.003758406329946548    2    1   14   11
 -3.747928510112346e-06    2    1   14   12
 -2.429668213802739e-05    2    1   14   13
 4.885498904650643e-07    2    1   14   14
 -3.719236968457301e-05    2    1   15    1
 5.06706897169924e-06    2    1   15    2
 -1.045931155025002e-05    2    1   15    3
 -0.0002711403354749977    2    1   15    4
 0.00829178434254766    2    1   15    5
 -0.0001378490488243063    2    1   15    6
 -4.864644207796591e-05    2    1   15    7
 -6.179500956931264e-08    2    1   15    8
 -6.485377467837814e-06    2    1   15    9
 0.003795957664543035    2    1   15   10
 6.336460934191427e-05    2    1   15   11
 -2.408900028178447e-05    2    1   15   12
 9.548787256768291e-07    2    1   15   13
 -4.950107528301603e-05    2    1   15   14
 -5.26642657352886e-07    2    1   15   15
 0.2335140126789941    2    2    1    1
 1.335944474810365e-07    2    2    2    1
 0.2570930000389862    2    2    2    2
 3.353279673230558e-06    2    2    3    1
 7.481415237570348e-05    2    2    3    2
 0.2539752807256744    2    2    3    3
 -4.056033825763306e-06    2    2    4    1
 -2.827847204915797e-05    2    2    4    2
 -0.002532115484508976    2    2    4    3
 0.2510342376627986    2    2    4    4
 -1.428678822633367e-05    2    2    5    1
 1.738044927690328e-07    2    2    5    2
 2.064070645442268e-06    2    2    5    3
 -2.657957363744607e-06    2    2    5    4
 0.2433611805710268    2    2    5    5
 -1.869016147614487e-08    2    2    6    1
 1.847867528849412e-05    2    2    6    2
 8.821715666272432e-05    2    2    6    3
 -0.000149526414452979    2    2    6    4
 -1.59370848217051e-06    2    2    6    5
 0.2656372643962825    2    2    6    6
 1.331395302182429e-05    2    2    7    1
 -0.0003469109604874728    2    2    7    2
 0.01196266780443522    2    2    7    3
 -0.01173752827956767    2    2    7    4
 7.099692685976828e-06    2    2    7    5
 -6.575021772671811e-05    2    2    7    6
 0.3072499277065887    2    2    7    7
 2.983407437280903e-06    2    2    8    1
 -0.00186548613078406    2    2    8    2
 -0.005795288114664966    2    2    8    3
 4.494710346410018e-06    2    2    8    4
 -7.013742701986875e-07    2    2    8    5
 -6.663266250649634e-06    2    2    8    6
 0.00122074387654852    2    2    8    7
 0.302067558899644    2    2    8    8
 -0.001766123394285443    2    2    9    1
 -4.766261367281355e-07    2    2    9    2
 3.216180020635224e-06    2    2    9    3
 -1.380478472457026e-06    2    2    9    4
 -5.691685918702747e-06    2    2    9    5
 3.074487786171486e-07    2    2    9    6
 6.076775747474264e-07    2    2    9    7
 2.623163075938988e-07    2    2    9    8
 0.3020544665579352    2    2    9    9
 2.01281058852254e-06    2    2   10    1
 -1.186557413997025e-06    2    2   10    2
 1.644888465648464e-06    2    2   10    3
 -1.021765369090563e-06    2    2   10    4
 -0.02590915366764211    2    2   10    5
 7.341179845129914e-07    2    2   10    6
 1.917539610926628e-06    2    2   10    7
 -5.736317705034549e-07    2    2   10    8
 -5.182270122512818e-05    2    2   10    9
 0.2958750182701197    2    2   10   10
 5.874450970243277e-07    2    2   11    1
 5.992378504030005e-07    2    2   11    2
 -2.956220452370763e-05    2    2   11    3
 4.941638967879232e-05    2    2   11    4
 1.151665115839784e-06    2    2   11    5
 0.02020448196184318    2    2   11    6
 -4.690686591597514e-05    2    2   11    7
 5.274590204772784e-05    2    2   11    8
 -3.318682208489215e-07    2    2   11    9
 8.039400626364333e-07    2    2   11   10
 0.3060262367534929    2    2   11   11
 -0.006431443100353597    2    2   12    1
 -7.425324412534817e-06    2    2   12    2
 -3.606705256368488e-06    2    2   12    3
 -1.080104859404874e-06    2    2   12    4
 -6.62856702579092e-05    2    2   12    5
 -3.599023829958694e-07    2    2   12    6
 5.006793625312977e-06    2    2   12    7
 -3.320584868610173e-05    2    2   12    8
 -0.02262551361490987    2    2   12    9
 7.300591754201861e-06    2    2   12   10
 -4.147065545615213e-08    2    2   12   11
 0.255532659568667    2    2   12   12
 -4.600265177829568e-06    2    2   13    1
 0.006652486042509672    2    2   13    2
 0.01446730806668809    2    2   13    3
 4.949317174299597e-07    2    2   13    4
 -9.744219094917129e-07    2    2   13    5
 6.48717793488734e-05    2    2   13    6
 -0.003051738487323094    2    2   13    7
 0.02258634389631514    2    2   13    8
 -3.32984876213735e-05    2    2   13    9
 3.798796399581542e-07    2    2   13   10
 4.60282805070291e-06    2    2   13   11
 1.250692428637787e-06    2    2   13   12
 0.2556525735273083    2    2   13   13
 6.552368224695473e-05    2    2   14    1
 -1.256407847732141e-06    2    2   14    2
 9.876573328307909e-06    2    2   14    3
 0.0002716675330792172    2    2   14    4
 0.008132574870702361    2    2   14    5
 -0.0001429832260367947    2    2   14    6
 4.738078822569127e-05    2    2   14    7
 1.719105500553187e-06    2    2   14    8
 -1.055637832357223e-05    2    2   14    9
 0.003740519870221762    2    2   14   10
 6.483944248128796e-05    2    2   14   11
 -3.515903624495831e-05    2    2   14   12
 -4.610614529054757e-08    2    2   14   13
 0.2484924880553407    2    2   14   14
 4.141629290375167e-06    2    2   15    1
 9.501017581663163e-05    2    2   15    2
 -0.0006197547268100932    2    2   15    3
 -0.0164883037560523    2    2   15    4
 0.0001395907058075572    2    2   15    5
 0.008341344718938925    2    2   15    6
 -0.002907086371809292    2    2   15    7
 -1.444869965347428e-05    2    2   15    8
 -1.077092742101857e-06    2    2   15    9
 6.314699026183548e-05    2    2   15   10
 -0.003819279306902236    2    2   15   11
 7.015298217382185e-08    2    2   15   12
 6.181491063790567e-05    2    2   15   13
 -3.006302633763106e-06    2    2   15   14
 0.2486877706135374    2    2   15   15
 7.042639209913568e-06    3    1    1    1
 6.868907836837148e-05    3    1    2    1
 3.353279673267124e-06    3    1    2    2
 0.04812161411216519    3    1    3    1
 -3.60210284614032e-06    3    1    3    2
 -5.988228870674736e-06    3    1    3    3
 0.001114280604151811    3    1    4    1
 1.179356349109166e-06    3    1    4    2
 -1.114729175127026e-05    3    1    4    3
 7.879504552833118e-06    3    1    4    4
 -1.865292186872345e-05    3    1    5    1
 -0.0001023526882484273    3    1    5    2
 0.0045414274500086    3    1    5    3
 0.04509848814745673    3    1    5    4
 3.932109669277066e-06    3    1    5    5
 -1.251880139980146e-06    3    1    6    1
 1.321869408450215e-05    3    1    6    2
 1.07457425095693e-07    3    1    6    3
 5.100087291239279e-06    3    1    6    4
 1.627849486598691e-05    3    1    6    5
 5.916838171823173e-06    3    1    6    6
 -0.009683116366513389    3    1    7    1
 -6.081953206278351e-07    3    1    7    2
 -4.549551900004868e-06    3    1    7    3
 -7.778119038469183e-06    3    1    7    4
 0.01505545869893992    3    1    7    5
 1.353990951864578e-06    3    1    7    6
 2.77431149770713e-05    3    1    7    7
 0.01049372682125053    3    1    8    1
 1.06593573699808e-05    3    1    8    2
 -4.440809710833667e-06    3    1    8    3
 1.770850150552734e-06    3    1    8    4
 -7.413343945468671e-05    3    1    8    5
 -1.575449147181881e-07    3    1    8    6
 -1.83568505253879e-06    3    1    8    7
 2.04649462194525e-05    3    1    8    8
 -8.286526804392228e-06    3    1    9    1
 0.01049715204199582    3    1    9    2
 -4.462945327419578e-06    3    1    9    3
 7.202085667501669e-06    3    1    9    4
 1.648613252119149e-06    3    1    9    5
 6.7239272695605e-05    3    1    9    6
 0.0001005031534191482    3    1    9    7
 0.001640088399461889    3    1    9    8
 1.760929602446237e-05    3    1    9    9
 -1.151206252114916e-05    3    1   10    1
 7.522419693826773e-05    3    1   10    2
 -0.003329822386214834    3    1   10    3
 0.01944431526543315    3    1   10    4
 -1.060609344282009e-05    3    1   10    5
 2.407342150382664e-06    3    1   10    6
 -0.01638045632457488    3    1   10    7
 0.00112578562308913    3    1   10    8
 -2.005402141453688e-06    3    1   10    9
 2.33611844949503e-05    3    1   10   10
 -7.186325811763672e-07    3    1   11    1
 -5.632352746498712e-06    3    1   11    2
 -5.262810041648949e-08    3    1   11    3
 -2.494189178057966e-06    3    1   11    4
 7.344720482549378e-06    3    1   11    5
 7.467132719737056e-06    3    1   11    6
 1.492168113344066e-06    3    1   11    7
 1.077336163368196e-06    3    1   11    8
 0.001117017016082577    3    1   11    9
 -5.809942874888767e-06    3    1   11   10
 2.335041653996629e-05    3    1   11   11
 1.452925648585948e-05    3    1   12    1
 0.03285165968937395    3    1   12    2
 -1.701949529774149e-05    3    1   12    3
 1.712845686591506e-05    3    1   12    4
 -2.399016338394913e-07    3    1   12    5
 -0.0009079183385818385    3    1   12    6
 0.0001774960224327239    3    1   12    7
 0.00590328179485286    3    1   12    8
 -6.736380796764871e-06    3    1   12    9
 1.879046692688832e-08    3    1   12   10
 -0.0003070469756513809    3    1   12   11
 3.809639558534435e-05    3    1   12   12
 -0.03285070001231955    3    1   13    1
 1.495808150228096e-05    3    1   13    2
 4.852690733492634e-06    3    1   13    3
 -4.928295136400641e-06    3    1   13    4
 -0.0009040428822006674    3    1   13    5
 -2.31103108837519e-06    3    1   13    6
 4.515273379817593e-06    3    1   13    7
 1.071293280354296e-05    3    1   13    8
 -0.005892622898108438    3    1   13    9
 0.0003066541155758709    3    1   13   10
 7.099598457552331e-07    3    1   13   11
 -0.01944337639563655    3    1   13   12
 -2.461201419355435e-05    3    1   13   13
 -1.576326067104293e-05    3    1   14    1
 -0.000881759544555015    3    1   14    2
 6.955190440337657e-07    3    1   14    3
 -3.997747827245864e-06    3    1   14    4
 -0.0005595051621087373    3    1   14    5
 0.0339527125779089    3    1   14    6
 -8.246033427725447e-06    3    1   14    7
 -0.0001600108514704132    3    1   14    8
 1.385233324288887e-06    3    1   14    9
 -0.0001894193280500711    3    1   14   10
 -0.01143658945523975    3    1   14   11
 2.619877360073003e-06    3    1   14   12
 0.0006013304739863022    3    1   14   13
 0.001034359880163349    3    1   14   14
 0.0008844918206366743    3    1   15    1
 -1.43141485880798e-05    3    1   15    2
 -2.939474457576173e-06    3    1   15    3
 -1.446866295287735e-06    3    1   15    4
 0.03394753867089803    3    1   15    5
 0.0005610568809731688    3    1   15    6
 -3.49660941172296e-06    3    1   15    7
 -6.941920671305053e-06    3    1   15    8
 0.0001622856520405711    3    1   15    9
 0.01143161284291012    3    1   15   10
 -0.0001896001443240539    3    1   15   11
 0.0006084404676260334    3    1   15   12
 2.59035109342421e-05    3    1   15   13
 -0.03070346816670088    3    1   15   14
 -0.001032836299042076    3    1   15   15
 -5.873177908152419e-05    3    2    1    1
 1.419387471775193e-06    3    2    2    1
 7.481415237566292e-05    3    2    2    2
 -3.60210284612797e-06    3    2    3    1
 0.04811539027908361    3    2    3    2
 -0.0001456109856343934    3    2    3    3
 1.049408997539242e-06    3    2    4    1
 0.001113178774926737    3    2    4    2
 -5.799896726798028e-05    3    2    4    3
 -5.872726151961026e-05    3    2    4    4
 -0.0001142742857789196    3    2    5    1
 1.992868948575974e-06    3    2    5    2
 -2.201653806598177e-08    3    2    5    3
 7.859747571756259e-07    3    2    5    4
 -0.0001130471629489573    3    2    5    5
 5.903647723974451e-06    3    2    6    1
 0.0002143250165952599    3    2    6    2
 -0.00454192452163486    3    2    6    3
 -0.04509513049347905    3    2    6    4
 1.243403715295028e-06    3    2    6    5
 -0.0001494912888421725    3    2    6    6
 -1.220786364603302e-06    3    2    7    1
 -0.009694589624743162    3    2    7    2
 8.280956067893247e-05    3    2    7    3
 0.0002090286827931457    3    2    7    4
 1.098672105266888e-06    3    2    7    5
 -0.01505397238136132    3    2    7    6
 -0.0009079252983311966    3    2    7    7
 9.627635075995615e-06    3    2    8    1
 -0.01049207091636068    3    2    8    2
 3.943359382214827e-06    3    2    8    3
 -7.515521700811632e-06    3    2    8    4
 4.58173637482681e-07    3    2    8    5
 -6.009432039815691e-05    3    2    8    6
 -9.744189100875054e-05    3    2    8    7
 0.001042391061771153    3    2    8    8
 0.01049627450210242    3    2    9    1
 1.48497900673765e-05    3    2    9    2
 1.089818790626306e-08    3    2    9    3
 1.757634759008023e-06    3    2    9    4
 -6.766918837684474e-05    3    2    9    5
 -1.150765552090627e-06    3    2    9    6
 -2.396707825441755e-06    3    2    9    7
 -3.215452132431459e-06    3    2    9    8
 -0.002239040062852726    3    2    9    9
 -3.47239057993601e-05    3    2   10    1
 -9.653985211741152e-07    3    2   10    2
 1.692888937092237e-07    3    2   10    3
 1.812725390363295e-06    3    2   10    4
 0.0002327887917751551    3    2   10    5
 1.463854072148805e-06    3    2   10    6
 -3.149116817646813e-06    3    2   10    7
 1.070322131897637e-06    3    2   10    8
 0.001117437317328856    3    2   10    9
 -0.0006851434553441004    3    2   10   10
 -5.668781351816404e-06    3    2   11    1
 4.119662814502272e-05    3    2   11    2
 -0.003331164665722619    3    2   11    3
 0.01944410281468154    3    2   11    4
 -3.260843625247787e-06    3    2   11    5
 -0.0002354921432008372    3    2   11    6
 -0.01638247517813447    3    2   11    7
 -0.001107935140440016    3    2   11    8
 -5.181037065038929e-07    3    2   11    9
 -3.99739906933052e-07    3    2   11   10
 -0.0006981925959161663    3    2   11   11
 0.032850286671297    3    2   12    1
 -1.501840048927026e-05    3    2   12    2
 -2.543198647425106e-06    3    2   12    3
 4.781835627448539e-06    3    2   12    4
 0.0009071225176699119    3    2   12    5
 -2.748582675181999e-07    3    2   12    6
 -3.092417715918653e-06    3    2   12    7
 -8.585191929711464e-07    3    2   12    8
 -0.005654757113322163    3    2   12    9
 -0.0003063149578498622    3    2   12   10
 -4.792198023714147e-07    3    2   12   11
 -0.01961949161302944    3    2   12   12
 1.638336022472591e-05    3    2   13    1
 0.03284639257826825    3    2   13    2
 -1.930124906688902e-05    3    2   13    3
 1.715545039060045e-05    3    2   13    4
 1.16034332921679e-06    3    2   13    5
 -0.0009066229420471947    3    2   13    6
 0.0001684657039268848    3    2   13    7
 -0.006142382449552368    3    2   13    8
 1.06996082209642e-06    3    2   13    9
 3.568475089694441e-07    3    2   13   10
 -0.0003101344142566386    3    2   13   11
 -3.050445365174927e-05    3    2   13   12
 0.01926543874350601    3    2   13   13
 -0.0008819676244945993    3    2   14    1
 1.472601059492371e-05    3    2   14    2
 3.272658249682987e-06    3    2   14    3
 -8.319555239704867e-07    3    2   14    4
 -0.03395058302115123    3    2   14    5
 -0.0005620502299427932    3    2   14    6
 3.625996756514875e-06    3    2   14    7
 -2.37624417596692e-06    3    2   14    8
 0.0001964656443795023    3    2   14    9
 -0.01143506604740696    3    2   14   10
 0.0001892587147742058    3    2   14   11
 0.0007042932647445214    3    2   14   12
 1.17661147969997e-05    3    2   14   13
 -0.03073019967476538    3    2   14   14
 -1.463578653043492e-05    3    2   15    1
 -0.0008839432277125692    3    2   15    2
 9.250437287301592e-07    3    2   15    3
 -4.455662258128481e-06    3    2   15    4
 -0.0005623443296842508    3    2   15    5
 0.03394291073895749    3    2   15    6
 -7.390179871937178e-06    3    2   15    7
 0.0001256325847055007    3    2   15    8
 3.666189531098974e-06    3    2   15    9
 -0.0001897081963116939    3    2   15   10
 -0.01142936335551386    3    2   15   11
 1.324890633229607e-05    3    2   15   12
 -0.0005037524382109065    3    2   15   13
 -0.001029984027463954    3    2   15   14
 0.03067557478175968    3    2   15   15
 0.2539754257129498    3    3    1    1
 -1.834646004305396e-06    3    3    2    1
 0.2539752807256744    3    3    2    2
 -5.988228870687225e-06    3    3    3    1
 -0.0001456109856344614    3    3    3    2
 0.267164370014565    3    3    3    3
 -7.221627153637946e-06    3    3    4    1
 9.533271284023427e-05    3    3    4    2
 0.003105255411705005    3    3    4    3
 0.2624108745443501    3    3    4    4
 0.006554198855249743    3    3    5    1
 1.118786649606144e-06    3    3    5    2
 -4.11113819673612e-06    3    3    5    3
 -8.605967436106231e-06    3    3    5    4
 0.2668811625278744    3    3    5    5
 6.485252438445096e-07    3    3    6    1
 -0.006553408773155064    3    3    6    2
 1.011857416365676e-05    3    3    6    3
 2.018358336310826e-05    3    3    6    4
 1.677542298142581e-06    3    3    6    5
 0.2668791055467283    3    3    6    6
 1.738928546641792e-05    3    3    7    1
 -0.0004941840951314991    3    3    7    2
 0.02021276738239126    3    3    7    3
 -0.01860768326323377    3    3    7    4
 6.243394531908053e-06    3    3    7    5
 -1.973092761613519e-05    3    3    7    6
 0.3453181613662635    3    3    7    7
 2.440926498595519e-06    3    3    8    1
 -7.391757102706711e-06    3    3    8    2
 -2.478541801934257e-06    3    3    8    3
 7.427755438479779e-06    3    3    8    4
 -1.881390955559855e-06    3    3    8    5
 1.02087703072223e-06    3    3    8    6
 -1.307141799895039e-05    3    3    8    7
 0.3284288624431215    3    3    8    8
 9.983293349126934e-06    3    3    9    1
 -2.960970979432351e-06    3    3    9    2
 -5.280071023961259e-06    3    3    9    3
 -7.380554794265257e-07    3    3    9    4
 1.021369502505174e-06    3    3    9    5
 1.352503811218198e-06    3    3    9    6
 3.10275316760231e-06    3    3    9    7
 6.203024075175496e-07    3    3    9    8
 0.3284258325561    3    3    9    9
 0.001569140174566264    3    3   10    1
 -1.705776637948422e-06    3    3   10    2
 1.863273958681972e-06    3    3   10    3
 -4.170293684859535e-06    3    3   10    4
 -0.03272739551929428    3    3   10    5
 1.932269337022948e-06    3    3   10    6
 7.380203257500174e-06    3    3   10    7
 -7.760824794707705e-07    3    3   10    8
 -7.686646825358798e-06    3    3   10    9
 0.3326989379136453    3    3   10   10
 4.152630482956787e-07    3    3   11    1
 0.001570734063618639    3    3   11    2
 7.773577298041221e-06    3    3   11    3
 -2.932170126565187e-05    3    3   11    4
 5.304793322067085e-07    3    3   11    5
 0.03272869394748395    3    3   11    6
 2.343393494882472e-05    3    3   11    7
 8.229726170726271e-06    3    3   11    8
 -2.608619968922096e-07    3    3   11    9
 -8.769191082897101e-07    3    3   11   10
 0.3326975314614211    3    3   11   11
 -2.847320298031037e-05    3    3   12    1
 -4.237067519462068e-06    3    3   12    2
 1.062281271090997e-06    3    3   12    3
 -2.592427810343566e-07    3    3   12    4
 -2.148841836225343e-06    3    3   12    5
 2.247829370100762e-06    3    3   12    6
 4.76766784444404e-06    3    3   12    7
 -4.4699887142938e-05    3    3   12    8
 -0.02961230026527966    3    3   12    9
 5.734217840958633e-06    3    3   12   10
 -1.176936676771695e-06    3    3   12   11
 0.2664461975036646    3    3   12   12
 8.918619750241291e-06    3    3   13    1
 -2.943627071698595e-05    3    3   13    2
 3.244093475036662e-06    3    3   13    3
 -2.311189816096874e-06    3    3   13    4
 1.6180657550268e-06    3    3   13    5
 1.587188640886925e-06    3    3   13    6
 2.250794782094557e-05    3    3   13    7
 0.02961489726511835    3    3   13    8
 -4.449572446547296e-05    3    3   13    9
 1.996122845087834e-06    3    3   13   10
 4.533862967478583e-06    3    3   13   11
 4.616307107317209e-06    3    3   13   12
 0.2664134157719932    3    3   13   13
 -4.54601064117145e-07    3    3   14    1
 3.223345733804967e-06    3    3   14    2
 3.118684823009315e-07    3    3   14    3
 2.446002560150222e-06    3    3   14    4
 2.340720974024815e-05    3    3   14    5
 -4.610314671996391e-06    3    3   14    6