 &FCI NORB=  15,NELEC=18,MS2=0,
  ORBSYM=1,1,1,1,1,1,1,1,1,1,1,1,1,1,1,
  ISYM=1,
 &END
 0.5627729781491742    1    1    1    1
 -0.003346139967156403    1    1    2    1
 0.2466833580973444    1    1    2    2
 0.003345440249183029    1    1    3    1
 0.007130097742265127    1    1    3    2
 0.2466948985486659    1    1    3    3
 0.004766068725971949    1    1    4    1
 0.06865545854014045    1    1    4    2
 0.003591360587801113    1    1    4    3
 0.2468102228455551    1    1    4    4
 0.00800173771229969    1    1    5    1
 -0.0008581755982306897    1    1    5    2
 0.0008565802693785906    1    1    5    3
 0.002800567119518786    1    1    5    4
 0.2056325642566407    1    1    5    5
 -0.004765804592562235    1    1    6    1
 0.003586452125439478    1    1    6    2
 0.06865399408044681    1    1    6    3
 0.002372123970528117    1    1    6    4
 -0.002798556385237404    1    1    6    5
 0.2468207171606762    1    1    6    6
 -0.002084184113347457    1    1    7    1
 -0.0003148779679400691    1    1    7    2
 0.0004113068010654427    1    1    7    3
 -0.001202217287263147    1    1    7    4
 -0.0009070508776042759    1    1    7    5
 -0.002093517311362053    1    1    7    6
 0.2870623657644001    1    1    7    7
 0.001007413135142441    1    1    8    1
 0.002550891776369509    1    1    8    2
 -0.001252313097165295    1    1    8    3
 -0.001624257110209008    1    1    8    4
 -0.0008474709831976382    1    1    8    5
 -0.0008685035828243878    1    1    8    6
 0.003775211252430055    1    1    8    7
 0.2985667944515961    1    1    8    8
 0.0009937356418802451    1    1    9    1
 0.001240854724551288    1    1    9    2
 -0.002552375233744667    1    1    9    3
 0.0008675530083453246    1    1    9    4
 -0.0008398730702338148    1    1    9    5
 0.00163027214621366    1    1    9    6
 -0.001463943218761576    1    1    9    7
 0.0001671031341344066    1    1    9    8
 0.2985686459653347    1    1    9    9
 -0.002225971338523074    1    1   10    1
 0.001081437350602251    1    1   10    2
 -0.001086994616895742    1    1   10    3
 0.0003650068468418304    1    1   10    4
 -0.0006659990710239966    1    1   10    5
 -0.0003689163014636799    1    1   10    6
 -0.005149985346451736    1    1   10    7
 0.004146799086855467    1    1   10    8
 0.004151051385275796    1    1   10    9
 0.3278893774554294    1    1   10   10
 -0.002077422781295177    1    1   11    1
 -0.0004066370240512517    1    1   11    2
 0.0003074729621355679    1    1   11    3
 0.002087269934540157    1    1   11    4
 -0.0009062294687527943    1    1   11    5
 0.001205975162934915    1    1   11    6
 -0.0087824946242293    1    1   11    7
 -0.001448692232338923    1    1   11    8
 0.00378749905347633    1    1   11    9
 -0.005198635458031821    1    1   11   10
 0.2871516236869331    1    1   11   11
 0.0005690872357026941    1    1   12    1
 0.003267809773619902    1    1   12    2
 0.001516041928754694    1    1   12    3
 -0.0006498071889917941    1    1   12    4
 0.0009124617547552731    1    1   12    5
 -0.000985128764648488    1    1   12    6
 7.269112032883282e-05    1    1   12    7
 0.001509715105467142    1    1   12    8
 -0.001460115335203435    1    1   12    9
 0.0002261992259849087    1    1   12   10
 -0.0007589693594388628    1    1   12   11
 0.1523266414383154    1    1   12   12
 0.0005702424740418862    1    1   13    1
 -0.001518880579517006    1    1   13    2
 -0.003270372999713183    1    1   13    3
 0.0009854785265240745    1    1   13    4
 0.0009075662955182251    1    1   13    5
 0.0006508695828435977    1    1   13    6
 -0.0007640788273905847    1    1   13    7
 -0.001459277756402826    1    1   13    8
 0.00151601843491929    1    1   13    9
 0.0002170312327707842    1    1   13   10
 7.10920576292506e-05    1    1   13   11
 -0.002239624760485425    1    1   13   12
 0.1523191219335946    1    1   13   13
 0.0002562825005245528    1    1   14    1
 -0.00532268717853729    1    1   14    2
 0.0006061157893100157    1    1   14    3
 -0.003275528855130537    1    1   14    4
 2.949406730784216e-05    1    1   14    5
 0.002085436098810563    1    1   14    6
 0.0009771263591904465    1    1   14    7
 -0.0002230505949201156    1    1   14    8
 -0.0002189902797587436    1    1   14    9
 -0.00206312942217452    1    1   14   10
 -0.001190383540314874    1    1   14   11
 -0.001731408336334162    1    1   14   12
 0.001012953297128775    1    1   14   13
 0.2190244398236304    1    1   14   14
 0.0002518871919641322    1    1   15    1
 -0.0006068245383921622    1    1   15    2
 0.005322107245491271    1    1   15    3
 -0.002085880387630829    1    1   15    4
 3.060443146371376e-05    1    1   15    5
 0.003278155332342718    1    1   15    6
 -0.001193844094844909    1    1   15    7
 -0.0002226124770187644    1    1   15    8
 -0.0002275447959075652    1    1   15    9
 -0.00205932468244834    1    1   15   10
 0.0009839688645868335    1    1   15   11
 0.001017001467063691    1    1   15   12
 -0.001730843807474021    1    1   15   13
 -0.0003242067734638521    1    1   15   14
 0.2190237809622862    1    1   15   15
 -0.003346139967156409    2    1    1    1
 0.003897545493033399    2    1    2    1
 -0.008009763852062122    2    1    2    2
 0.001480665347440109    2    1    3    1
 -0.0005522899991795328    2    1    3    2
 0.004446535014918804    2    1    3    3
 0.003318100452827797    2    1    4    1
 -0.005441490680707693    2    1    4    2
 -0.0002879132679900175    2    1    4    3
 -0.00972018779975355    2    1    4    4
 -0.0004447006374128002    2    1    5    1
 -0.0008947254973082347    2    1    5    2
 -0.0004738106777914835    2    1    5    3
 0.0001855543629711138    2    1    5    4
 0.0008551182860721218    2    1    5    5
 0.001200242758406359    2    1    6    1
 -0.000205360196991031    2    1    6    2
 0.0007201892377277557    2    1    6    3
 -0.0002470445921281952    2    1    6    4
 0.000201431237649679    2    1    6    5
 0.003962358446562043    2    1    6    6
 -0.0001041525050145227    2    1    7    1
 -6.562027082679845e-06    2    1    7    2
 -0.0001072902734029744    2    1    7    3
 0.0001354204179408895    2    1    7    4
 3.016852395828537e-05    2    1    7    5
 -0.0001094146742570264    2    1    7    6
 0.0005148865671507054    2    1    7    7
 -0.0002155946724603339    2    1    8    1
 0.0001301573558118198    2    1    8    2
 -0.0001114036003658826    2    1    8    3
 0.000126819642465274    2    1    8    4
 0.000128804892505988    2    1    8    5
 -1.306463185672903e-05    2    1    8    6
 -0.0003495194404888652    2    1    8    7
 0.002520301236212389    2    1    8    8
 0.0003198348845237428    2    1    9    1
 -0.0002642521272068609    2    1    9    2
 1.150771499206024e-05    2    1    9    3
 -0.0001082274309938921    2    1    9    4
 -4.023713272339424e-05    2    1    9    5
 -9.199318995840286e-05    2    1    9    6
 -0.000158730601076355    2    1    9    7
 0.0003401977938340873    2    1    9    8
 0.002006879886269988    2    1    9    9
 0.0003311335397035375    2    1   10    1
 -0.000131703501846103    2    1   10    2
 -1.734162583673589e-05    2    1   10    3
 -0.000282502366555777    2    1   10    4
 9.695017951389957e-05    2    1   10    5
 -0.0001570802187205047    2    1   10    6
 0.002035927007851126    2    1   10    7
 0.0005249661478989903    2    1   10    8
 -0.0006300895184916856    2    1   10    9
 -7.162177463981158e-05    2    1   10   10
 0.0001767433265131814    2    1   11    1
 -8.389926650850727e-05    2    1   11    2
 -1.708305572571333e-05    2    1   11    3
 -0.0001731336251375992    2    1   11    4
 1.894661575844908e-05    2    1   11    5
 -3.57153328090239e-05    2    1   11    6
 0.0002487519264450699    2    1   11    7
 0.0004250569926171368    2    1   11    8
 -2.817802678073145e-05    2    1   11    9
 -0.001338957342320267    2    1   11   10
 0.002522950988151281    2    1   11   11
 0.0002766170961238599    2    1   12    1
 -0.0001058988734656276    2    1   12    2
 -3.536799866353223e-05    2    1   12    3
 -5.442967462573811e-05    2    1   12    4
 -0.0002274970649608282    2    1   12    5
 -2.386022102616682e-05    2    1   12    6
 -4.98039409005355e-06    2    1   12    7
 0.0001205227461940952    2    1   12    8
 -0.0001061874300333044    2    1   12    9
 6.213932737151718e-05    2    1   12   10
 -3.307822522704251e-05    2    1   12   11
 0.002627134521493053    2    1   12   12
 -0.000277908960557015    2    1   13    1
 -9.102580163991386e-05    2    1   13    2
 5.946206323269727e-05    2    1   13    3
 -2.90733257183171e-05    2    1   13    4
 0.0002887889596341123    2    1   13    5
 -5.182365896324279e-05    2    1   13    6
 -5.643948334421135e-05    2    1   13    7
 9.262169492595026e-05    2    1   13    8
 -9.066951157399018e-05    2    1   13    9
 -9.126998447174288e-05    2    1   13   10
 -3.011799996645253e-05    2    1   13   11
 2.293143082659881e-05    2    1   13   12
 0.0014305711946224    2    1   13   13
 -0.0008301019570926504    2    1   14    1
 0.0002365877401934578    2    1   14    2
 -0.00010941667697949    2    1   14    3
 0.0001956459802701324    2    1   14    4
 0.0001565245470957839    2    1   14    5
 -9.59683546817314e-05    2    1   14    6
 -0.0001153972969702749    2    1   14    7
 -0.0001662986685402605    2    1   14    8
 0.0002061967913480044    2    1   14    9
 0.0003070234188354875    2    1   14   10
 0.0001371525268107683    2    1   14   11
 -0.0001894021022397851    2    1   14   12
 2.960661404459538e-05    2    1   14   13
 0.001479116579104188    2    1   14   14
 0.0007328394908681572    2    1   15    1
 -4.141885591133249e-05    2    1   15    2
 -0.0001729807967859984    2    1   15    3
 -3.028235017060167e-05    2    1   15    4
 -0.0001971013037788364    2    1   15    5
 -0.0001472265824234276    2    1   15    6
 -3.900937409402498e-05    2    1   15    7
 -2.828521498025803e-05    2    1   15    8
 2.800450438965845e-05    2    1   15    9
 -6.8022345249251e-05    2    1   15   10
 -2.230765763997005e-05    2    1   15   11
 1.205522047650998e-05    2    1   15   12
 -0.0003193259320977178    2    1   15   13
 -0.0002620604811595342    2    1   15   14
 -0.0006372978017519838    2    1   15   15
 0.2466833580973445    2    2    1    1
 -0.008009763852062157    2    2    2    1
 0.3674709636118479    2    2    2    2
 -0.004448845228443639    2    2    3    1
 0.0001563543949253967    2    2    3    2
 0.1919684085772574    2    2    3    3
 -0.004522943472948073    2    2    4    1
 -6.832232593206866e-06    2    2    4    2
 4.170463112533954e-07    2    2    4    3
 0.3775833487169165    2    2    4    4
 -0.001578713913538787    2    2    5    1
 0.008011239870604498    2    2    5    2
 0.004447873559176728    2    2    5    3
 -0.004526845958659314    2    2    5    4
 0.2466908508910358    2    2    5    5
 -0.003153971284517471    2    2    6    1
 -1.865531126277707e-06    2    2    6    2
 -5.840589887798342e-06    2    2    6    3
 -0.0007757253633936536    2    2    6    4
 -0.003159557879166373    2    2    6    5
 0.1866002259536776    2    2    6    6
 -0.0005613632619454682    2    2    7    1
 -4.792433070032083e-06    2    2    7    2
 5.1273822666367e-06    2    2    7    3
 -0.001117124093321393    2    2    7    4
 -0.0005491325232014847    2    2    7    5
 0.0002669355900955509    2    2    7    6
 0.3333084148913326    2    2    7    7
 0.00185211591821472    2    2    8    1
 0.002487558888167823    2    2    8    2
 0.0004061901488237932    2    2    8    3
 -1.105746138254857e-06    2    2    8    4
 -0.001860913658618089    2    2    8    5
 -2.952514745243142e-06    2    2    8    6
 2.431561997280396e-06    2    2    8    7
 0.3172836756965159    2    2    8    8
 0.00121346410005135    2    2    9    1
 0.0003644007179909048    2    2    9    2
 -0.002782472422107436    2    2    9    3
 -3.788366495958376e-07    2    2    9    4
 -0.001217379150303223    2    2    9    5
 4.976842011758346e-06    2    2    9    6
 -5.086031574451101e-06    2    2    9    7
 0.0001500969866489292    2    2    9    8
 0.316253422114954    2    2    9    9
 -0.0007340051563845609    2    2   10    1
 4.057631296128239e-06    2    2   10    2
 1.799508671654088e-06    2    2   10    3
 0.0003429244396092332    2    2   10    4
 -0.000738146688574072    2    2   10    5
 0.00118379358616951    2    2   10    6
 -0.01620809069157705    2    2   10    7
 3.088253097463623e-06    2    2   10    8
 -7.482857907841115e-06    2    2   10    9
 0.3216704487198133    2    2   10   10
 -0.0006668306830320185    2    2   11    1
 -1.383083006207576e-06    2    2   11    2
 -9.112613601090433e-07    2    2   11    3
 0.002410533494627401    2    2   11    4
 -0.0006751051358886103    2    2   11    5
 -0.0003626243093998675    2    2   11    6
 -0.006266898401069568    2    2   11    7
 -9.208600733680517e-06    2    2   11    8
 -3.065556706943462e-06    2    2   11    9
 0.008713310142651589    2    2   11   10
 0.2931581807727519    2    2   11   11
 -0.001615564666995346    2    2   12    1
 -0.0006558746687400891    2    2   12    2
 0.002467200600140175    2    2   12    3
 0.0002173640259127105    2    2   12    4
 0.004526257115897278    2    2   12    5
 -0.0005418685370848705    2    2   12    6
 0.0001148701024151324    2    2   12    7
 3.388453744740338e-05    2    2   12    8
 -0.001519458387984939    2    2   12    9
 -0.001296692375565795    2    2   12   10
 -0.001071145639986483    2    2   12   11
 0.188444670168968    2    2   12   12
 0.001651730787190537    2    2   13    1
 0.008200275637124936    2    2   13    2
 -0.005213891619472681    2    2   13    3
 -0.00471933526260913    2    2   13    4
 -0.003180535321538633    2    2   13    5
 0.002622366061864495    2    2   13    6
 0.0006927773515782573    2    2   13    7
 -0.002147310568996762    2    2   13    8
 0.0006382273737160165    2    2   13    9
 0.0009085399932079084    2    2   13   10
 -0.000285101911054682    2    2   13   11
 -0.002545032874319425    2    2   13   12
 0.2468219399817525    2    2   13   13
 0.004521847307607878    2    2   14    1
 0.0006538434284046107    2    2   14    2
 -0.002468229966077346    2    2   14    3
 0.0002193100772039069    2    2   14    4
 -0.001617144967482869    2    2   14    5
 -0.0005422796828188191    2    2   14    6
 0.0001050401832161884    2    2   14    7
 -3.460578570379982e-05    2    2   14    8
 0.001511159571751657    2    2   14    9
 -0.001295539344628326    2    2   14   10
 -0.001079362094140793    2    2   14   11
 -0.002327687923468207    2    2   14   12
 0.0008001319832420485    2    2   14   13
 0.1884334363596155    2    2   14   14
 -0.003177044849206698    2    2   15    1
 -0.008199068188641974    2    2   15    2
 0.005209240398996433    2    2   15    3
 -0.004715374372997955    2    2   15    4
 0.00165220359991815    2    2   15    5
 0.002619581340390433    2    2   15    6
 0.000683963516560188    2    2   15    7
 0.002138120769948944    2    2   15    8
 -0.000637218168817854    2    2   15    9
 0.0009183330618699513    2    2   15   10
 -0.0002759540068683419    2    2   15   11
 0.0008049286554645046    2    2   15   12
 -0.00165172746537557    2    2   15   13
 -0.002543896335570678    2    2   15   14
 0.2468148019077547    2    2   15   15
 0.003345440249183018    3    1    1    1
 0.00148066534744011    3    1    2    1
 -0.004448845228443635    3    1    2    2
 0.003898253742627172    3    1    3    1
 0.0005525580291030729    3    1    3    2
 0.00800868584553906    3    1    3    3
 0.001200794778098514    3    1    4    1
 -0.0007202929738556925    3    1    4    2
 0.0002053865444480414    3    1    4    3
 -0.003964094243501519    3    1    4    4
 0.0004450474216668409    3    1    5    1
 -0.0004738808178894337    3    1    5    2
 -0.0008946668178956511    3    1    5    3
 0.0002013096276070735    3    1    5    4
 -0.0008558638219851116    3    1    5    5
 0.003318125232290208    3    1    6    1
 0.0002880493464561887    3    1    6    2
 0.005442806912450886    3    1    6    3
 0.0002472113278021571    3    1    6    4
 0.0001858885667342445    3    1    6    5
 0.009718833004475444    3    1    6    6
 -0.0001774682580508815    3    1    7    1
 -1.731567643630236e-05    3    1    7    2
 -8.426762897250686e-05    3    1    7    3
 -3.577255000188816e-05    3    1    7    4
 -1.904733743541194e-05    3    1    7    5
 -0.0001737822260526044    3    1    7    6
 -0.00253946072880317    3    1    7    7
 -0.0003199536031221527    3    1    8    1
 9.519971201268877e-06    3    1    8    2
 -0.0002633620152236041    3    1    8    3
 -9.123774177735713e-05    3    1    8    4
 4.10933197018389e-05    3    1    8    5
 -0.0001077520168447782    3    1    8    6
 2.441874054052568e-05    3    1    8    7
 -0.002033074419713776    3    1    8    8
 0.0002149823750124765    3    1    9    1
 -0.0001110817120978114    3    1    9    2
 0.0001334290710101845    3    1    9    3
 -1.368418431606956e-05    3    1    9    4
 -0.0001279427211310299    3    1    9    5
 0.0001257389253751099    3    1    9    6
 -0.0004177120343403825    3    1    9    7
 -0.0003412861725900775    3    1    9    8
 -0.002542217189484086    3    1    9    9
 -0.000333411289305464    3    1   10    1
 -1.763532497443605e-05    3    1   10    2
 -0.0001332231949725024    3    1   10    3
 -0.0001568362470481681    3    1   10    4
 -9.727035678573867e-05    3    1   10    5
 -0.0002838380907229428    3    1   10    6
 0.001341812801268706    3    1   10    7
 0.0006304105116409679    3    1   10    8
 -0.0005207156562279192    3    1   10    9
 5.640671643157128e-05    3    1   10   10
 0.0001038468528149689    3    1   11    1
 -0.0001065327107499623    3    1   11    2
 -6.563718462359442e-06    3    1   11    3
 -0.0001097645246230125    3    1   11    4
 -2.953869521111786e-05    3    1   11    5
 0.0001366257761837381    3    1   11    6
 -0.0002484463488618492    3    1   11    7
 0.0001601658310271565    3    1   11    8
 0.000344102593357703    3    1   11    9
 -0.00203834225337881    3    1   11   10
 -0.0005250844254003727    3    1   11   11
 0.0002779435513309333    3    1   12    1
 5.954726904865308e-05    3    1   12    2
 -9.084033351312089e-05    3    1   12    3
 -5.181837648806431e-05    3    1   12    4
 -0.0002890063458221611    3    1   12    5
 -2.940957395748089e-05    3    1   12    6
 2.994819227083821e-05    3    1   12    7
 8.909186515528426e-05    3    1   12    8
 -9.144762987168029e-05    3    1   12    9
 9.21027481193474e-05    3    1   12   10
 5.691290185531876e-05    3    1   12   11
 -0.001433628208673448    3    1   12   12
 -0.0002765434281725342    3    1   13    1
 -3.539813414462301e-05    3    1   13    2
 -0.0001056630868808066    3    1   13    3
 -2.370378116976127e-05    3    1   13    4
 0.0002275014847778246    3    1   13    5
 -5.422757733127209e-05    3    1   13    6
 3.312011143665902e-05    3    1   13    7
 0.0001067647080914676    3    1   13    8
 -0.00012076062879067    3    1   13    9
 -6.176356022112173e-05    3    1   13   10
 5.6796759445399e-06    3    1   13   11
 -2.298902055789534e-05    3    1   13   12
 -0.002629998350224738    3    1   13   13
 -0.0007325153196102285    3    1   14    1
 -0.0001730810466557549    3    1   14    2
 -4.164951654809111e-05    3    1   14    3
 -0.0001473173716748873    3    1   14    4
 0.000197065719613591    3    1   14    5
 -3.010221453555546e-05    3    1   14    6
 2.232452269513732e-05    3    1   14    7
 -2.729757087837799e-05    3    1   14    8
 2.827089269427599e-05    3    1   14    9
 6.719168165621056e-05    3    1   14   10
 4.03894153174329e-05    3    1   14   11
 0.0003196082470692333    3    1   14   12
 -1.216044737805965e-05    3    1   14   13
 0.0006354318325144093    3    1   14   14
 0.0008301772883613833    3    1   15    1
 -0.0001092518908264169    3    1   15    2
 0.0002371873014740675    3    1   15    3
 -9.590821267390493e-05    3    1   15    4
 -0.0001565927358317182    3    1   15    5
 0.0001958470972351329    3    1   15    6
 -0.0001369401556842012    3    1   15    7
 -0.0002062058595492092    3    1   15    8
 0.0001667762466771904    3    1   15    9
 -0.0003077322199686424    3    1   15   10
 0.0001154533209552509    3    1   15   11
 -2.961198843616289e-05    3    1   15   12
 0.0001896830598885322    3    1   15   13
 0.0002621102663045559    3    1   15   14
 -0.001481774650648773    3    1   15   15
 0.007130097742265164    3    2    1    1
 -0.0005522899991795277    3    2    2    1
 0.0001563543949253991    3    2    2    2
 0.0005525580291030751    3    2    3    1
 0.001612632939358354    3    2    3    2
 0.0001562383692020514    3    2    3    3
 -0.000191250925706896    3    2    4    1
 -1.434604580043391e-06    3    2    4    2
 7.933916224098659e-08    3    2    4    3
 0.0006117914849943477    3    2    4    4
 -3.771229686658304e-05    3    2    5    1
 0.0005524971047840978    3    2    5    2
 -0.0005522253832690017    3    2    5    3
 -0.0001911147283201223    3    2    5    4
 0.007129865822213772    3    2    5    5
 0.000191315304745408    3    2    6    1
 -4.096282196887422e-07    3    2    6    2
 1.729609073817813e-06    3    2    6    3
 0.000596159680989717    3    2    6    4
 0.0001910940454665367    3    2    6    5
 0.0006117149506554096    3    2    6    6
 -0.0001739464459901481    3    2    7    1
 -1.021675601414727e-06    3    2    7    2
 1.281324178675742e-07    3    2    7    3
 7.935155496062056e-05    3    2    7    4
 -0.0001744794014857788    3    2    7    5
 5.316062787842044e-05    3    2    7    6
 -0.004639744972252807    3    2    7    7
 0.0001328276071552569    3    2    8    1
 0.0004917821200455425    3    2    8    2
 -0.0001098886501571434    3    2    8    3
 7.715775707535969e-07    3    2    8    4
 -0.0001330760834697018    3    2    8    5
 -3.322551442528081e-07    3    2    8    6
 -1.832554102827394e-07    3    2    8    7
 -0.002064695629533918    3    2    8    8
 0.000132606517147358    3    2    9    1
 0.0001080945240942289    3    2    9    2
 -0.0004913633571531061    3    2    9    3
 -1.018698353201964e-06    3    2    9    4
 -0.0001319807063764413    3    2    9    5
 1.106727068984092e-06    3    2    9    6
 1.672616240542875e-06    3    2    9    7
 -0.0006585748823080751    3    2    9    8
 -0.002059117788726999    3    2    9    9
 -0.000173774014508134    3    2   10    1
 -1.270280716241681e-07    3    2   10    2
 -3.174430565547998e-08    3    2   10    3
 -0.0001415629712181162    3    2   10    4
 -0.0001728116957788796    3    2   10    5
 0.0001414639509917001    3    2   10    6
 -0.0009588412851754788    3    2   10    7
 2.078070651935458e-07    3    2   10    8
 -1.522807440741982e-07    3    2   10    9
 0.002467881541142574    3    2   10   10
 -0.0001732375330003036    3    2   11    1
 2.082618493193358e-08    3    2   11    2
 -6.33921150462296e-07    3    2   11    3
 -5.30966182061602e-05    3    2   11    4
 -0.0001746764096517084    3    2   11    5
 -7.941724678140423e-05    3    2   11    6
 -0.00188618990215253    3    2   11    7
 -2.191992112862558e-07    3    2   11    8
 2.200264466755579e-08    3    2   11    9
 -0.0009610221479787114    3    2   11   10
 -0.00463699888037785    3    2   11   11
 4.281536102190115e-05    3    2   12    1
 0.0004129211898289555    3    2   12    2
 0.0003778403006265462    3    2   12    3
 -0.0001234819394259748    3    2   12    4
 -0.0001223699007853016    3    2   12    5
 -0.0001616150520208078    3    2   12    6
 0.0001442288240985393    3    2   12    7
 0.0001722287152766068    3    2   12    8
 0.0001071588973545638    3    2   12    9
 -0.0001960911732810167    3    2   12   10
 -0.0003013356363160313    3    2   12   11
 -0.00709653568767465    3    2   12   12
 4.28633568253513e-05    3    2   13    1
 -0.0003777617637576719    3    2   13    2
 -0.0004128149282789007    3    2   13    3
 0.0001612756638720994    3    2   13    4
 -0.0001223963406430701    3    2   13    5
 0.0001235731509517682    3    2   13    6
 -0.0003019735832744197    3    2   13    7
 0.0001064487312654388    3    2   13    8
 0.0001715410482431514    3    2   13    9
 -0.0001965722855555071    3    2   13   10
 0.000144827388701601    3    2   13   11
 -0.000100434824638193    3    2   13   12
 -0.007095836130318714    3    2   13   13
 -0.0001223651941024095    3    2   14    1
 -0.00041266380921649    3    2   14    2
 -0.0003777719062175855    3    2   14    3
 -0.0001234507610154595    3    2   14    4
 4.27371614440321e-05    3    2   14    5
 -0.0001615771432481716    3    2   14    6
 0.0001441350338298939    3    2   14    7
 -0.0001713518341263175    3    2   14    8
 -0.0001061155851353587    3    2   14    9
 -0.0001962226017063981    3    2   14   10
 -0.0003027606288794142    3    2   14   11
 0.0001783767352795615    3    2   14   12
 8.764527370240933e-05    3    2   14   13
 -0.007095603649204612    3    2   14   14
 -0.0001223101614331922    3    2   15    1
 0.0003777226478430376    3    2   15    2
 0.0004127772392067144    3    2   15    3
 0.0001618668310710418    3    2   15    4
 4.265715945149848e-05    3    2   15    5
 0.0001233311527050462    3    2   15    6
 -0.0003021889381684854    3    2   15    7
 -0.0001080712329363833    3    2   15    8
 -0.0001715418438657544    3    2   15    9
 -0.0001951581000544214    3    2   15   10
 0.0001440899200173478    3    2   15   11
 8.790304360582821e-05    3    2   15   12
 0.0001783485382109552    3    2   15   13
 -0.0001005267049944558    3    2   15   14
 -0.007096249454455483    3    2   15   15
 0.246694898548666    3    3    1    1
 0.00444653501491876    3    3    2    1
 0.1919684085772573    3    3    2    2
 0.008008685845539088    3    3    3    1
 0.0001562383692020278    3    3    3    2
 0.3674724324179132    3    3    3    3
 0.00315548080541327    3    3    4    1
 5.000527590809378e-06    3    3    4    2
 -3.378895411100362e-07    3    3    4    3
 0.1866010747953112    3    3    4    4
 -0.001578936249888196    3    3    5    1
 -0.004451523619668128    3    3    5    2
 -0.008011783508912722    3    3    5    3
 0.003158086795400781    3    3    5    4
 0.2466808709269607    3    3    5    5
 0.004523591058156457    3    3    6    1
 -1.291654605218608e-06    3    3    6    2
 1.858309769764421e-05    3    3    6    3
 -0.0007755350084422703    3    3    6    4
 0.004525875312156233    3    3    6    5
 0.377583412317677    3    3    6    6
 -0.0006732692497740899    3    3    7    1
 -6.18007214622969e-06    3    3    7    2
 7.511673985642012e-07    3    3    7    3
 0.0003619909822207912    3    3    7    4
 -0.000669949772842404    3    3    7    5
 -0.002410660343485677    3    3    7    6
 0.2931702004517714    3    3    7    7
 0.001227057030925242    3    3    8    1
 0.002781220367359031    3    3    8    2
 -0.000375244312794186    3    3    8    3
 2.600447293424693e-06    3    3    8    4
 -0.001219809213589841    3    3    8    5
 -2.139487568873473e-06    3    3    8    6
 3.489582956657523e-06    3    3    8    7
 0.3162656483300946    3    3    8    8
 0.001851819349828699    3    3    9    1
 -0.0004171994218854657    3    3    9    2
 -0.00248796277660853    3    3    9    3
 -4.346105190173861e-06    3    3    9    4
 -0.001848946860396976    3    3    9    5
 -1.581624300972528e-06    3    3    9    6
 8.985444708438893e-07    3    3    9    7
 0.0001543503310394537    3    3    9    8
 0.317293387705965    3    3    9    9
 -0.0007368095885521356    3    3   10    1
 4.016558155490492e-06    3    3   10    2
 -3.043651622966839e-07    3    3   10    3
 -0.001184130675573502    3    3   10    4
 -0.0007343559348915574    3    3   10    5
 -0.0003402596784347093    3    3   10    6
 0.008717379162169336    3    3   10    7
 8.61784275902873e-06    3    3   10    8
 -3.249545540655966e-06    3    3   10    9
 0.3216515413298894    3    3   10   10
 -0.0005526634574032914    3    3   11    1
 2.142302797311429e-06    3    3   11    2
 4.03548880127582e-06    3    3   11    3
 -0.0002665562668042233    3    3   11    4
 -0.0005566749774493693    3    3   11    5
 0.001118344164481586    3    3   11    6
 -0.006258402758930781    3    3   11    7
 -1.136559196744124e-06    3    3   11    8
 -1.085129022022033e-05    3    3   11    9
 -0.01620374193845969    3    3   11   10
 0.3333466372113477    3    3   11   11
 0.001653616976852716    3    3   12    1
 0.005210181939101643    3    3   12    2
 -0.008201768929314512    3    3   12    3
 -0.002621244443914039    3    3   12    4
 -0.003178159302632225    3    3   12    5
 0.004718085654167263    3    3   12    6
 -0.0002753237219146275    3    3   12    7
 0.0006301414707799589    3    3   12    8
 -0.002142327020025036    3    3   12    9
 0.0009179777223422028    3    3   12   10
 0.0006858264724355465    3    3   12   11
 0.2468165444790027    3    3   12   12
 -0.00161634576239709    3    3   13    1
 -0.002470958930263663    3    3   13    2
 0.0006551126566611943    3    3   13    3
 0.0005427957271273158    3    3   13    4
 0.004521610435419455    3    3   13    5
 -0.0002201180896647313    3    3   13    6
 -0.00107355425451721    3    3   13    7
 -0.001512578160387826    3    3   13    8
 4.024996319379917e-05    3    3   13    9
 -0.001296896272906836    3    3   13   10
 0.0001093319769237868    3    3   13   11
 -0.002544442594514819    3    3   13   12
 0.1884358082681516    3    3   13   13
 -0.003179049799191616    3    3   14    1
 -0.005212720768649856    3    3   14    2
 0.008197466338833316    3    3   14    3
 -0.002620444111884593    3    3   14    4
 0.001650224184472976    3    3   14    5
 0.004715441194042767    3    3   14    6