 &FCI NORB=  24,NELEC=24,MS2=0,
  ORBSYM=1,1,1,1,1,1,1,1,1,1,1,1,1,1,1,1,1,1,1,1,1,1,1,1,
  ISYM=1,
 &END
 0.6247631739452428    1    1    1    1
 0.0001143331141299724    1    1    2    1
 0.06151761979471592    1    1    2    2
 7.229725156798387e-05    1    1    3    1
 1.669233586148883e-05    1    1    3    2
 0.04809237450153914    1    1    3    3
 0.0001130347759130293    1    1    4    1
 1.440901655716664e-06    1    1    4    2
 4.996512596033939e-07    1    1    4    3
 0.04868908723792652    1    1    4    4
 -0.0006066377242912668    1    1    5    1
 -4.109297353813887e-06    1    1    5    2
 -1.711303274705954e-06    1    1    5    3
 -1.21714468488317e-05    1    1    5    4
 0.08700216542425496    1    1    5    5
 1.440927159546498e-05    1    1    6    1
 2.742808832132713e-06    1    1    6    2
 8.861557080838889e-06    1    1    6    3
 2.891561756042439e-07    1    1    6    4
 -6.838703596785773e-07    1    1    6    5
 0.0394551563309225    1    1    6    6
 9.080810621171529e-06    1    1    7    1
 2.929478909966279e-07    1    1    7    2
 9.343995395825826e-08    1    1    7    3
 3.402360175285533e-05    1    1    7    4
 -1.018421204953712e-05    1    1    7    5
 9.917268414463603e-08    1    1    7    6
 0.0436686057518885    1    1    7    7
 6.805564248782463e-05    1    1    8    1
 7.728078299943296e-07    1    1    8    2
 3.096338209088184e-07    1    1    8    3
 1.054422432842785e-05    1    1    8    4
 -8.431621136853653e-06    1    1    8    5
 1.624957301432302e-07    1    1    8    6
 -3.299730050128743e-05    1    1    8    7
 0.03977460189686926    1    1    8    8
 -4.963712499302511e-05    1    1    9    1
 -2.402951383394999e-06    1    1    9    2
 3.737082137066944e-06    1    1    9    3
 -4.744417121380745e-07    1    1    9    4
 1.347832594048464e-06    1    1    9    5
 2.356577381306569e-05    1    1    9    6
 -1.669400158860714e-07    1    1    9    7
 -2.649598553155878e-07    1    1    9    8
 0.03635304870223496    1    1    9    9
 0.0003397622850671513    1    1   10    1
 -6.231968969661344e-05    1    1   10    2
 -2.387684302821077e-05    1    1   10    3
 -1.285433258559221e-05    1    1   10    4
 4.751994305730901e-05    1    1   10    5
 -9.960966141588435e-06    1    1   10    6
 -2.869525113978665e-06    1    1   10    7
 -7.922236919253496e-06    1    1   10    8
 1.610581644223197e-05    1    1   10    9
 0.2066506681823239    1    1   10   10
 4.929612743169041e-05    1    1   11    1
 -6.75327183472737e-06    1    1   11    2
 -3.351319388325071e-05    1    1   11    3
 8.31059573869029e-07    1    1   11    4
 -2.387754673621285e-06    1    1   11    5
 2.762154519892114e-05    1    1   11    6
 3.141906484656693e-07    1    1   11    7
 4.568516742170452e-07    1    1   11    8
 -4.896344252157341e-06    1    1   11    9
 -2.945058081985337e-05    1    1   11   10
 0.04368316027211029    1    1   11   11
 0.01120536572711851    1    1   12    1
 2.618254675098596e-05    1    1   12    2
 1.071686670383094e-05    1    1   12    3
 6.163051118420314e-05    1    1   12    4
 -0.0001727422009065254    1    1   12    5
 7.508939268336762e-06    1    1   12    6
 2.367582886603706e-05    1    1   12    7
 3.183181834212683e-05    1    1   12    8
 -1.659191602933232e-05    1    1   12    9
 1.317050368673596e-06    1    1   12   10
 2.849368230875784e-05    1    1   12   11
 0.3319367204548819    1    1   12   12
 0.00184837294918721    1    1   13    1
 8.366490510737455e-06    1    1   13    2
 2.755336106705757e-06    1    1   13    3
 2.445451300954926e-05    1    1   13    4
 -0.0001584992908639321    1    1   13    5
 5.643605873746581e-07    1    1   13    6
 9.179621069696456e-06    1    1   13    7
 1.446391233818729e-05    1    1   13    8
 -3.786192019182314e-06    1    1   13    9
 -8.071840691243054e-05    1    1   13   10
 4.796912559105568e-06    1    1   13   11
 0.0008304779863906219    1    1   13   12
 0.1417509754045647    1    1   13   13
 0.0002797337461171497    1    1   14    1
 3.70287461614301e-05    1    1   14    2
 5.510923231804083e-06    1    1   14    3
 3.077514032065808e-06    1    1   14    4
 -1.008970406095306e-05    1    1   14    5
 4.255334844241878e-06    1    1   14    6
 4.850266093082051e-07    1    1   14    7
 2.094573070198406e-06    1    1   14    8
 -4.247748129296999e-06    1    1   14    9
 -0.0003054814437577531    1    1   14   10
 4.866152373963724e-06    1    1   14   11
 6.563159587061204e-05    1    1   14   12
 1.809766552416097e-05    1    1   14   13
 0.08516557125638914    1    1   14   14
 -5.125193837294746e-05    1    1   15    1
 -5.962807305698133e-07    1    1   15    2
 -2.923289132653088e-07    1    1   15    3
 5.309053437166669e-05    1    1   15    4
 4.520103846006894e-05    1    1   15    5
 -1.034493179783418e-07    1    1   15    6
 -7.05335025625981e-06    1    1   15    7
 5.060128262996026e-06    1    1   15    8
 3.494332545344292e-07    1    1   15    9
 6.705734814255754e-06    1    1   15   10
 -5.848587988411272e-07    1    1   15   11
 -5.469405631398318e-05    1    1   15   12
 -2.888688913516174e-05    1    1   15   13
 -1.623867862622153e-06    1    1   15   14
 0.05452061367950661    1    1   15   15
 0.002800684956618221    1    1   16    1
 1.151945260158282e-05    1    1   16    2
 5.739839875265214e-06    1    1   16    3
 1.435025146825979e-05    1    1   16    4
 0.0001551588562589322    1    1   16    5
 1.733712618181095e-06    1    1   16    6
 1.229026250079989e-05    1    1   16    7
 7.963484422504905e-06    1    1   16    8
 -7.713021712379213e-06    1    1   16    9
 -0.0001143538838213356    1    1   16   10
 1.133838675743282e-05    1    1   16   11
 0.002139710924820295    1    1   16   12
 -0.001979874207190101    1    1   16   13
 3.133074970263457e-05    1    1   16   14
 -1.830979806862712e-05    1    1   16   15
 0.2066543383800412    1    1   16   16
 0.0004953764429722726    1    1   17    1
 4.274183295480196e-06    1    1   17    2
 1.680258582331863e-06    1    1   17    3
 8.158556648830219e-06    1    1   17    4
 0.000356878436162674    1    1   17    5
 4.766914808368684e-07    1    1   17    6
 6.674664779783197e-06    1    1   17    7
 6.751435816468224e-06    1    1   17    8
 -2.785902960789829e-06    1    1   17    9
 -4.021989136304834e-05    1    1   17   10
 3.878781140164269e-06    1    1   17   11
 0.0006276354702036948    1    1   17   12
 0.0005432212251304357    1    1   17   13
 1.040316567481561e-05    1    1   17   14
 -6.825210548587723e-06    1    1   17   15
 4.575590760126689e-05    1    1   17   16
 0.1078253043527018    1    1   17   17
 0.0001603507895928925    1    1   18    1
 7.634126392311208e-05    1    1   18    2
 1.672419808589996e-05    1    1   18    3
 4.417154895724348e-06    1    1   18    4
 -1.578516947730403e-05    1    1   18    5
 5.702408899374251e-06    1    1   18    6
 1.087448952146349e-06    1    1   18    7
 2.729676277848915e-06    1    1   18    8
 -8.266939237396342e-06    1    1   18    9
 -0.0001979650799408295    1    1   18   10
 1.37924749121819e-05    1    1   18   11
 0.0001958198380162996    1    1   18   12
 3.421794536827483e-05    1    1   18   13
 0.0003464534606073185    1    1   18   14
 -2.959497723747417e-06    1    1   18   15
 7.525564094090956e-05    1    1   18   16
 2.249496900994313e-05    1    1   18   17
 0.1078287476985803    1    1   18   18
 -0.0001583750366111221    1    1   19    1
 -1.803745669746547e-06    1    1   19    2
 -5.459048619328923e-07    1    1   19    3
 1.028822151097027e-05    1    1   19    4
 0.0001642056782945418    1    1   19    5
 -3.0651360346409e-07    1    1   19    6
 -3.277970263018193e-06    1    1   19    7
 -3.648928640933061e-06    1    1   19    8
 8.875328200764617e-07    1    1   19    9
 1.799616847809098e-05    1    1   19   10
 -1.615832601387358e-06    1    1   19   11
 -0.0001410951514807614    1    1   19   12
 -0.0001343895254583366    1    1   19   13
 -4.044247568660619e-06    1    1   19   14
 1.402509697079964e-05    1    1   19   15
 -6.516622530940939e-06    1    1   19   16
 -3.213300697767506e-05    1    1   19   17
 -8.373696639527785e-06    1    1   19   18
 0.07248419625406372    1    1   19   19
 0.003099135116737635    1    1   20    1
 9.4145458541269e-06    1    1   20    2
 1.345069788649571e-05    1    1   20    3
 2.428473408760301e-05    1    1   20    4
 -0.0001054829789705633    1    1   20    5
 7.373603908686974e-06    1    1   20    6
 4.540221888321546e-06    1    1   20    7
 9.369762180728664e-06    1    1   20    8
 -2.710761371202041e-06    1    1   20    9
 0.002895545528247348    1    1   20   10
 1.325584290268517e-06    1    1   20   11
 0.0004899861330716646    1    1   20   12
 0.0001547575132382672    1    1   20   13
 -7.434492958872817e-06    1    1   20   14
 -6.175330369135866e-06    1    1   20   15
 0.0008965534964475114    1    1   20   16
 8.436829190755106e-05    1    1   20   17
 -0.0004094773989771529    1    1   20   18
 -2.672708029427202e-05    1    1   20   19
 0.3121258775196101    1    1   20   20
 0.001168105748648038    1    1   21    1
 1.368050992168702e-05    1    1   21    2
 1.148907246915103e-05    1    1   21    3
 8.722542616540657e-06    1    1   21    4
 -3.212096993662966e-05    1    1   21    5
 6.979931973792721e-06    1    1   21    6
 1.778817046274489e-06    1    1   21    7
 5.454480045734037e-06    1    1   21    8
 -5.823886694993668e-06    1    1   21    9
 -0.001747591722802944    1    1   21   10
 9.811003688873e-06    1    1   21   11
 0.0001300578884165197    1    1   21   12
 5.392106676837081e-05    1    1   21   13
 0.0001065741014051188    1    1   21   14
 -5.201175210104642e-06    1    1   21   15
 0.0001299168603397242    1    1   21   16
 3.019694224850215e-05    1    1   21   17
 -0.0005290463885972874    1    1   21   18
 -1.130535095007817e-05    1    1   21   19
 0.0002873847411662355    1    1   21   20
 0.1371142959251922    1    1   21   21
 0.0001120831836633578    1    1   22    1
 -6.532331318231038e-05    1    1   22    2
 5.237048953947282e-05    1    1   22    3
 1.172832493953753e-06    1    1   22    4
 -4.242657557636122e-06    1    1   22    5
 1.449007825925208e-05    1    1   22    6
 4.073298434833968e-07    1    1   22    7
 7.019303349323976e-07    1    1   22    8
 -3.044458395064349e-06    1    1   22    9
 -5.125334241172416e-05    1    1   22   10
 9.801990958670853e-06    1    1   22   11
 4.447600026312702e-05    1    1   22   12
 7.601567109048334e-06    1    1   22   13
 -1.562536173866922e-05    1    1   22   14
 -1.060935538348489e-06    1    1   22   15
 2.12548812605795e-05    1    1   22   16
 6.305980239303342e-06    1    1   22   17
 1.757476501524585e-05    1    1   22   18
 -2.368880719692734e-06    1    1   22   19
 -2.036014239074857e-06    1    1   22   20
 1.013328637198777e-05    1    1   22   21
 0.05452835019154009    1    1   22   22
 -0.000176143069930436    1    1   23    1
 -0.0001177516681994013    1    1   23    2
 -2.982272883053205e-05    1    1   23    3
 -2.301461299755624e-06    1    1   23    4
 8.209261084017895e-06    1    1   23    5
 -6.826244082914869e-06    1    1   23    6
 -7.047043652632886e-07    1    1   23    7
 -1.299350117976252e-06    1    1   23    8
 5.574015601824531e-06    1    1   23    9
 6.388829966639301e-05    1    1   23   10
 -7.191637428342903e-06    1    1   23   11
 -8.957593063741709e-05    1    1   23   12
 -1.762354234243206e-05    1    1   23   13
 0.0001566744520454529    1    1   23   14
 1.913674119027579e-06    1    1   23   15
 -4.057015867842211e-05    1    1   23   16
 -1.201815533507523e-05    1    1   23   17
 -5.285483277738827e-05    1    1   23   18
 4.573946816503745e-06    1    1   23   19
 5.215835497551878e-05    1    1   23   20
 5.153883296057034e-05    1    1   23   21
 -2.049273886379379e-05    1    1   23   22
 0.07248924709095551    1    1   23   23
 0.0002381351357363263    1    1   24    1
 2.233535121620757e-06    1    1   24    2
 1.036692175288702e-06    1    1   24    3
 2.15193088834755e-05    1    1   24    4
 -5.017884961107735e-05    1    1   24    5
 3.571495586902925e-07    1    1   24    6
 2.00637505677547e-05    1    1   24    7
 4.816860868523236e-06    1    1   24    8
 -7.694939738613188e-07    1    1   24    9
 -2.183421219715271e-05    1    1   24   10
 1.185920823249113e-06    1    1   24   11
 0.0001121733948715436    1    1   24   12
 3.55537516130104e-05    1    1   24   13
 5.260714207596956e-06    1    1   24   14
 -6.78063552172191e-05    1    1   24   15
 1.029547137062602e-05    1    1   24   16
 -2.864425181591827e-05    1    1   24   17
 7.582955671139972e-06    1    1   24   18
 0.0001182404072512613    1    1   24   19
 4.594313148215912e-05    1    1   24   20
 1.658396027157811e-05    1    1   24   21
 2.271958151226701e-06    1    1   24   22
 -4.365342550089738e-06    1    1   24   23
 0.06248592052055344    1    1   24   24
 0.0001143331141299725    2    1    1    1
 1.519462163162254e-07    2    1    2    1
 0.0001268142992023458    2    1    2    2
 3.756732589203214e-08    2    1    3    1
 -1.777837428794446e-06    2    1    3    2
 2.548520476912501e-05    2    1    3    3
 6.82246149334688e-08    2    1    4    1
 1.276720324237025e-08    2    1    4    2
 -2.160028344417207e-10    2    1    4    3
 1.14809873201203e-06    2    1    4    4
 -3.215959127356847e-07    2    1    5    1
 2.585739185507061e-08    2    1    5    2
 -1.553807863477807e-09    2    1    5    3
 -1.669994537094652e-09    2    1    5    4
 4.095734601814988e-06    2    1    5    5
 8.75053427919925e-09    2    1    6    1
 -3.01413862608458e-07    2    1    6    2
 -3.654897993945905e-09    2    1    6    3
 5.673744269919779e-11    2    1    6    4
 -2.281569452065462e-10    2    1    6    5
 7.240701196514216e-06    2    1    6    6
 1.187961466626916e-08    2    1    7    1
 8.550060937479034e-09    2    1    7    2
 -2.162196426724822e-10    2    1    7    3
 2.763132626960161e-09    2    1    7    4
 -1.159161856089676e-09    2    1    7    5
 -1.624591493308889e-11    2    1    7    6
 8.929850150033044e-07    2    1    7    7
 4.084954782758724e-08    2    1    8    1
 -4.813653103733521e-09    2    1    8    2
 9.51872258670058e-11    2    1    8    3
 1.26270778278834e-09    2    1    8    4
 -1.039443296498755e-09    2    1    8    5
 3.418447744566554e-11    2    1    8    6
 -2.724422715948528e-09    2    1    8    7
 6.806965755937444e-07    2    1    8    8
 -3.027705304558763e-08    2    1    9    1
 3.323257123598721e-07    2    1    9    2
 4.717534671018325e-08    2    1    9    3
 -1.711837534839306e-11    2    1    9    4
 1.445692722074719e-10    2    1    9    5
 8.593714365316787e-08    2    1    9    6
 -1.381437027235289e-11    2    1    9    7
 -1.340266534481068e-11    2    1    9    8
 4.891209271339744e-06    2    1    9    9
 -2.694515950263707e-07    2    1   10    1
 -1.713664863522839e-07    2    1   10    2
 4.987666965217341e-09    2    1   10    3
 1.588138074081214e-09    2    1   10    4
 -4.580556700908075e-09    2    1   10    5
 2.345165144009454e-09    2    1   10    6
 3.153216518295585e-10    2    1   10    7
 5.608137927872989e-10    2    1   10    8
 -7.067721486104103e-10    2    1   10    9
 -3.118017885031869e-05    2    1   10   10
 3.538905430041631e-08    2    1   11    1
 -9.279689593262684e-07    2    1   11    2
 -6.343525396667942e-07    2    1   11    3
 5.280079592744218e-11    2    1   11    4
 -3.386505250895955e-10    2    1   11    5
 1.265438726432457e-07    2    1   11    6
 -3.810194895793956e-11    2    1   11    7
 3.867929342978746e-11    2    1   11    8
 -2.523742301236771e-08    2    1   11    9
 2.258522231690445e-09    2    1   11   10
 1.249892422113398e-05    2    1   11   11
 6.106339521819935e-06    2    1   12    1
 -7.007022718268892e-08    2    1   12    2
 5.337816970263966e-09    2    1   12    3
 1.628455641577865e-08    2    1   12    4
 -5.216242258558878e-08    2    1   12    5
 4.107315571475991e-09    2    1   12    6
 7.361784146597103e-09    2    1   12    7
 7.59453444930706e-09    2    1   12    8
 -5.243174608405091e-09    2    1   12    9
 -1.370205395346401e-07    2    1   12   10
 1.138274447736269e-08    2    1   12   11
 5.105424166989327e-05    2    1   12   12
 7.753440140758624e-07    2    1   13    1
 -4.2200322046836e-08    2    1   13    2
 1.223466309163327e-09    2    1   13    3
 4.484259119883734e-09    2    1   13    4
 -3.27864589893646e-08    2    1   13    5
 2.846757461940631e-10    2    1   13    6
 1.491862008091287e-09    2    1   13    7
 2.560583912057111e-09    2    1   13    8
 -6.849908355811871e-10    2    1   13    9
 1.229314745683603e-08    2    1   13   10
 8.720849964312724e-10    2    1   13   11
 2.242628538702594e-07    2    1   13   12
 1.165901230687601e-05    2    1   13   13
 1.626116110410108e-07    2    1   14    1
 4.041833329575915e-07    2    1   14    2
 -6.088398869892278e-09    2    1   14    3
 3.618816731491342e-10    2    1   14    4
 -5.355285634132838e-10    2    1   14    5
 -3.413318775145411e-09    2    1   14    6
 5.238304456049169e-10    2    1   14    7
 -2.855484016375979e-10    2    1   14    8
 -3.46833988719865e-09    2    1   14    9
 3.144034995339634e-08    2    1   14   10
 1.001323967583438e-08    2    1   14   11
 2.370910742809017e-08    2    1   14   12
 1.159740560484072e-09    2    1   14   13
 -3.103673018874222e-05    2    1   14   14
 -4.096271361370173e-08    2    1   15    1
 2.14736240505565e-08    2    1   15    2
 -4.428149838931911e-10    2    1   15    3
 6.208901086219452e-09    2    1   15    4
 5.554136376829109e-09    2    1   15    5
 -1.341550505547577e-11    2    1   15    6
 -1.95068540962914e-10    2    1   15    7
 4.350655745604382e-10    2    1   15    8
 6.513002710154027e-11    2    1   15    9
 5.577978474673909e-10    2    1   15   10
 -3.735686857955413e-11    2    1   15   11
 -1.590877561892258e-08    2    1   15   12
 -5.063020163558165e-09    2    1   15   13
 -2.630372486661169e-10    2    1   15   14
 1.526512417656866e-06    2    1   15   15
 1.818058882321162e-06    2    1   16    1
 -3.955052847867009e-08    2    1   16    2
 1.182165471599162e-09    2    1   16    3
 6.944056425376246e-10    2    1   16    4
 4.553821254373094e-08    2    1   16    5
 2.865335537519698e-10    2    1   16    6
 1.939569347960477e-09    2    1   16    7
 2.250213102532153e-10    2    1   16    8
 -9.298489033402709e-10    2    1   16    9
 -7.555634084592076e-09    2    1   16   10
 1.590403455126061e-09    2    1   16   11
 3.493011175765831e-07    2    1   16   12
 -6.659538292609665e-07    2    1   16   13
 4.673569698929032e-09    2    1   16   14
 -2.091076778882386e-09    2    1   16   15
 2.455296173113653e-05    2    1   16   16
 2.86565768725409e-07    2    1   17    1
 -1.80481837019714e-08    2    1   17    2
 -2.695654397700166e-10    2    1   17    3
 9.394147448947769e-10    2    1   17    4
 7.037398870288092e-08    2    1   17    5
 1.415562955285317e-10    2    1   17    6
 7.874177831504468e-10    2    1   17    7
 8.29090162878604e-10    2    1   17    8
 -3.167775411194343e-10    2    1   17    9
 -1.383666755928415e-09    2    1   17   10
 5.548429124361206e-10    2    1   17   11
 1.545652233683116e-07    2    1   17   12
 9.871866950275849e-08    2    1   17   13
 2.00032030359703e-09    2    1   17   14
 -5.342323603294068e-10    2    1   17   15
 -2.265773610568721e-08    2    1   17   16
 6.847249200112732e-06    2    1   17   17
 1.849301079992186e-07    2    1   18    1
 8.947885166471573e-07    2    1   18    2
 -1.850749355401775e-08    2    1   18    3
 -1.873981200520975e-10    2    1   18    4
 2.052753460636758e-09    2    1   18    5
 -4.966683184527746e-09    2    1   18    6
 7.513997146137485e-10    2    1   18    7
 -9.717126699469073e-10    2    1   18    8
 3.187701066634222e-09    2    1   18    9
 -3.785754733366465e-08    2    1   18   10
 -6.557660758736613e-09    2    1   18   11
 5.915408206425988e-08    2    1   18   12
 -1.915533513481785e-09    2    1   18   13
 -5.205199446544093e-08    2    1   18   14
 -1.138142314215833e-10    2    1   18   15
 8.76232968682227e-09    2    1   18   16
 2.601510494618113e-09    2    1   18   17
 -3.014062163720313e-05    2    1   18   18
 -1.03027613099885e-07    2    1   19    1
 4.780764132491353e-09    2    1   19    2
 -2.744772957562657e-10    2    1   19    3
 1.215601194312664e-09    2    1   19    4
 2.230365293600242e-08    2    1   19    5
 -4.041703445403606e-11    2    1   19    6
 -2.129366031028104e-10    2    1   19    7
 -3.614858719664339e-10    2    1   19    8
 5.630101628182287e-11    2    1   19    9
 7.983342592406535e-10    2    1   19   10
 -1.483074122533568e-10    2    1   19   11
 -3.847086483407845e-08    2    1   19   12
 -2.476246373486937e-08    2    1   19   13
 -7.25851439160095e-10    2    1   19   14
 5.004447548080202e-10    2    1   19   15
 4.025794906883936e-09    2    1   19   16
 -2.39050914436365e-09    2    1   19   17
 -3.302758952315757e-10    2    1   19   18
 2.862751751467015e-06    2    1   19   19
 6.911679191795909e-06    2    1   20    1
 1.640848365030672e-07    2    1   20    2
 -2.268770169121526e-09    2    1   20    3
 8.099111019814203e-09    2    1   20    4
 -2.937542219157756e-08    2    1   20    5
 -2.617762822629723e-10    2    1   20    6
 2.028227348125228e-09    2    1   20    7
 5.009712282129697e-09    2    1   20    8
 -3.403068069837786e-09    2    1   20    9
 -1.994257982002531e-07    2    1   20   10
 4.256740783949258e-09    2    1   20   11
 2.853400371056672e-07    2    1   20   12
 4.607981639992644e-08    2    1   20   13
 2.127485186511795e-08    2    1   20   14
 -5.922419867005081e-09    2    1   20   15
 2.610527293592901e-07    2    1   20   16
 4.062741383032931e-08    2    1   20   17
 7.920094213262365e-08    2    1   20   18
 -1.276268647604506e-08    2    1   20   19
 -2.672676505274893e-05    2    1   20   20
 7.983242636629148e-07    2    1   21    1
 1.778079020846601e-07    2    1   21    2
 -1.075983242221705e-08    2    1   21    3
 1.103925905751398e-09    2    1   21    4
 -3.289300820867818e-09    2    1   21    5
 -3.609089495170132e-09    2    1   21    6
 3.024127761531607e-10    2    1   21    7
 7.753454739565114e-10    2    1   21    8
 -1.691499733306756e-09    2    1   21    9
 6.963545104205449e-08    2    1   21   10
 1.194859470033166e-09    2    1   21   11
 6.46171337101295e-08    2    1   21   12
 4.856329605357056e-09    2    1   21   13
 5.161905044639857e-08    2    1   21   14
 -6.473969726170556e-10    2    1   21   15
 1.607652883837112e-08    2    1   21   16
 4.554750095658245e-09    2    1   21   17
 7.016190307247177e-07    2    1   21   18
 -2.576648106454143e-09    2    1   21   19
 8.418020201920334e-08    2    1   21   20
 -3.023843417636076e-05    2    1   21   21
 6.040410136148113e-08    2    1   22    1
 -7.020402072987813e-06    2    1   22    2
 8.474399002977091e-07    2    1   22    3
 -4.063948181715258e-10    2    1   22    4
 -1.010656437006865e-08    2    1   22    5
 2.165708154073803e-07    2    1   22    6
 -1.356244584133496e-09    2    1   22    7
 6.812299395965062e-10    2    1   22    8
 -4.855322129463981e-08    2    1   22    9
 2.457706533009023e-08    2    1   22   10
 2.253155686563821e-07    2    1   22   11
 3.099788476460087e-08    2    1   22   12
 1.175100027830838e-08    2    1   22   13
 -1.779344144635851e-07    2    1   22   14
 -1.753248472197314e-09    2    1   22   15
 6.487719688366403e-09    2    1   22   16
 4.277656467431144e-10    2    1   22   17
 -9.708779297609202e-08    2    1   22   18
 -2.621569900804514e-09    2    1   22   19
 -3.201621659394095e-08    2    1   22   20
 -7.011552391732098e-08    2    1   22   21
 6.235453685146189e-05    2    1   22   22
 -1.440240173533399e-07    2    1   23    1
 -7.155431533874688e-06    2    1   23    2
 2.780955030174796e-07    2    1   23    3
 -9.639199168052752e-11    2    1   23    4
 -2.082114024184273e-09    2    1   23    5
 4.048237758384226e-08    2    1   23    6
 -2.38328711460271e-10    2    1   23    7
 1.350823347829474e-10    2    1   23    8
 -2.883318425204262e-08    2    1   23    9
 8.691325146852719e-09    2    1   23   10
 5.951859988448105e-08    2    1   23   11
 -1.752096530436284e-08    2    1   23   12
 3.268404352871694e-09    2    1   23   13
 4.000618347048509e-07    2    1   23   14
 -8.229699840927398e-10    2    1   23   15
 1.073258214740796e-11    2    1   23   16
 9.926257704546471e-10    2    1   23   17
 -2.537391807439168e-08    2    1   23   18
 -4.616404248458729e-11    2    1   23   19
 -4.502344519604651e-08    2    1   23   20
 -3.716252775983759e-08    2    1   23   21
 5.704038072101853e-07    2    1   23   22
 -1.95831965762448e-05    2    1   23   23
 1.405383426912196e-07    2    1   24    1
 -2.3347635522842e-08    2    1   24    2
 6.806707808767528e-10    2    1   24    3
 2.521589342819112e-09    2    1   24    4
 -7.989249581187841e-09    2    1   24    5
 1.389537064426126e-10    2    1   24    6
 1.976529767993387e-09    2    1   24    7
 5.522227494956711e-10    2    1   24    8
 -1.102470717365257e-10    2    1   24    9
 2.118453686367561e-09    2    1   24   10
 1.824116958069187e-10    2    1   24   11
 3.132167169383472e-08    2    1   24   12
 6.909617901798432e-09    2    1   24   13
 4.475773408655965e-10    2    1   24   14
 -6.498147778784299e-09    2    1   24   15
 -2.262871537997559e-09    2    1   24   16
 -5.741113559303115e-09    2    1   24   17
 -5.986192829265977e-10    2    1   24   18
 1.929923679778622e-08    2    1   24   19
 1.598089756545673e-08    2    1   24   20
 1.107793855187326e-09    2    1   24   21
 3.664043839551317e-09    2    1   24   22
 1.824380860332044e-09    2    1   24   23
 2.064502501479866e-06    2    1   24   24
 0.06151761979471595    2    2    1    1
 0.0001268142992023461    2    2    2    1
 0.624679620714934    2    2    2    2
 -1.450454139158381e-05    2    2    3    1
 -0.002619592272959423    2    2    3    2
 0.2066011469571137    2    2    3    3
 -1.340824832937752e-06    2    2    4    1
 2.549362333604222e-05    2    2    4    2
 8.843210718935283e-07    2    2    4    3
 0.02734210131504323    2    2    4    4
 2.148307637708177e-06    2    2    5    1
 3.446673332661032e-05    2    2    5    2
 -7.733763426926898e-06    2    2    5    3
 -1.10109757934993e-06    2    2    5    4
 0.03642825220267169    2    2    5    5
 -4.823704403036691e-06    2    2    6    1
 -0.0004604743431170786    2    2    6    2
 5.470342525498915e-05    2    2    6    3
 7.055367720340148e-07    2    2    6    4
 -1.830809829463071e-06    2    2    6    5
 0.1077551710705655    2    2    6    6
 -8.243660592705713e-07    2    2    7    1
 1.457158012934651e-05    2    2    7    2
 -4.935788370429336e-07    2    2    7    3
 6.983997610850978e-06    2    2    7    4
 -1.231925054488434e-06    2    2    7    5
 6.371187025254884e-08    2    2    7    6
 0.02563085813229522    2    2    7    7
 -9.152751662418864e-07    2    2    8    1
 -7.61715121243562e-06    2    2    8    2
 8.677185630450166e-07    2    2    8    3
 1.284865888046794e-06    2    2    8    4
 -9.656310210993378e-07    2    2    8    5
 2.862811693588172e-07    2    2    8    6
 -7.44814679250543e-06    2    2    8    7
 0.024274873944649    2    2    8    8
 4.139272020189984e-06    2    2    9    1
 0.0005377186281751203    2    2    9    2
 0.0001436668696513628    2    2    9    3
 -3.746979926978062e-07    2    2    9    4
 1.299214644875966e-06    2    2    9    5
 0.0003809076066518683    2    2    9    6
 -1.667415321467734e-07    2    2    9    7
 -1.581719770810573e-07    2    2    9    8
 0.08660901600814261    2    2    9    9
 -3.702528753055273e-05    2    2   10    1
 -0.0002643274202420894    2    2   10    2
 3.051910359751461e-05    2    2   10    3
 1.529573929000447e-06    2    2   10    4
 -4.371620734195044e-06    2    2   10    5
 9.653286290903702e-06    2    2   10    6
 5.876201853625749e-07    2    2   10    7
 1.295559088729538e-06    2    2   10    8
 -9.637692217078944e-06    2    2   10    9
 0.08516107519128845    2    2   10   10
 -7.595939902045118e-06    2    2   11    1
 -0.001895512167358476    2    2   11    2
 -0.001975555467782531    2    2   11    3
 7.186598737816348e-07    2    2   11    4
 -2.289692400394143e-06    2    2   11    5
 0.0005402874542831121    2    2   11    6
 -1.608119577248117e-08    2    2   11    7
 2.730854003529144e-07    2    2   11    8
 -0.0001537002517916418    2    2   11    9
 1.946631750947618e-05    2    2   11   10
 0.141795715368123    2    2   11   11
 6.547581655050372e-05    2    2   12    1
 -9.909570602080439e-05    2    2   12    2
 2.091886626704487e-05    2    2   12    3
 1.90526751694389e-06    2    2   12    4
 -3.293834618487238e-06    2    2   12    5
 5.989657549322297e-06    2    2   12    6
 6.628243836682644e-07    2    2   12    7
 1.159361556419184e-06    2    2   12    8
 -4.051518994776237e-06    2    2   12    9
 -1.560780039283566e-05    2    2   12   10
 9.098681357546727e-06    2    2   12   11
 0.05452533022150161    2    2   12   12
 6.878719267148646e-06    2    2   13    1
 -5.678558724894414e-05    2    2   13    2
 9.943149125335964e-06    2    2   13    3
 1.615167808536393e-06    2    2   13    4
 -5.135308356533461e-06    2    2   13    5
 3.619442243743084e-06    2    2   13    6
 7.359137379523172e-07    2    2   13    7
 1.061691941689316e-06    2    2   13    8
 -2.126291816455815e-06    2    2   13    9
 4.701520843551774e-06    2    2   13   10
 4.760960535006988e-06    2    2   13   11
 9.590633837163266e-06    2    2   13   12
 0.04368077651248033    2    2   13   13
 6.179527000461193e-05    2    2   14    1