 &FCI NORB=  24,NELEC=24,MS2=0,
  ORBSYM=1,1,1,1,1,1,1,1,1,1,1,1,1,1,1,1,1,1,1,1,1,1,1,1,
  ISYM=1,
 &END
 0.1505437226946745    1    1    1    1
 0.1184241625252768    1    1    2    2
 -0.03241155856391855    1    1    3    1
 0.11766118706552    1    1    3    3
 -0.03318912605679378    1    1    4    2
 0.1167668889340573    1    1    4    4
 0.0008733946395810136    1    1    5    1
 0.03357800334293569    1    1    5    3
 0.1160630545715045    1    1    5    5
 -0.0008845270546434993    1    1    6    2
 -0.03385744875510122    1    1    6    4
 0.1154375095439171    1    1    6    6
 -0.0001454040225156838    1    1    7    1
 -0.0008262068276473078    1    1    7    3
 0.03408182784981997    1    1    7    5
 0.1147990537241441    1    1    7    7
 -0.0001885601246557726    1    1    8    2
 -0.0007337511187861107    1    1    8    4
 -0.03428030819430095    1    1    8    6
 0.1140668587254504    1    1    8    8
 -6.072408266032375e-05    1    1    9    1
 -0.0001910482983813796    1    1    9    3
 0.0005961134910503225    1    1    9    5
 -0.03446472256879569    1    1    9    7
 0.1131388001962984    1    1    9    9
 -8.231258506604441e-05    1    1   10    2
 -0.0001619586137357977    1    1   10    4
 -0.000395742898907819    1    1   10    6
 -0.03462449931637351    1    1   10    8
 0.1117859403585626    1    1   10   10
 2.617901076779408e-05    1    1   11    1
 7.619887902334237e-05    1    1   11    3
 -0.0001004257362133502    1    1   11    5
 0.0001149480768275601    1    1   11    7
 0.03475853070174341    1    1   11    9
 0.1095421625353166    1    1   11   11
 2.497089577985917e-05    1    1   12    2
 4.547100341946968e-05    1    1   12    4
 1.679808278910212e-05    1    1   12    6
 -0.0001739101045487804    1    1   12    8
 0.0350440809205126    1    1   12   10
 0.1410992802975216    1    1   12   12
 1.32218219014448e-06    1    1   13    1
 -1.749659766508895e-06    1    1   13    3
 3.006286321209997e-05    1    1   13    5
 -0.000256858511652594    1    1   13    7
 -0.002743393986910156    1    1   13    9
 -0.01930983069494163    1    1   13   11
 0.1413068742789085    1    1   13   13
 3.767304314959523e-07    1    1   14    2
 2.261782629042622e-05    1    1   14    4
 0.0001927799948554174    1    1   14    6
 0.001860031467598141    1    1   14    8
 -0.008134020330816207    1    1   14   10
 0.0189974878346126    1    1   14   12
 0.1084909192924361    1    1   14   14
 1.151322056207348e-06    1    1   15    1
 1.495942575921016e-05    1    1   15    3
 -0.0001262704807710089    1    1   15    5
 0.001145046018549383    1    1   15    7
 -0.004823018546764897    1    1   15    9
 0.007359436919463351    1    1   15   11
 0.03698458088213304    1    1   15   13
 0.1124365974122204    1    1   15   15
 1.053112419082975e-05    1    1   16    2
 8.408736523194608e-05    1    1   16    4
 0.0007330086684320235    1    1   16    6
 -0.003160572150403296    1    1   16    8
 -0.00416421508215464    1    1   16   10
 -0.003439836196629663    1    1   16   12
 -0.0359375580032987    1    1   16   14
 0.1141910429559704    1    1   16   16
 -6.243377892698864e-06    1    1   17    1
 -5.747864853334478e-05    1    1   17    3
 0.0004932751913711152    1    1   17    5
 0.002203395645564433    1    1   17    7
 0.002598916653138865    1    1   17    9
 0.002359335229515133    1    1   17   11
 0.0004233794095098095    1    1   17   13
 0.03573282106496342    1    1   17   15
 0.1152210288912428    1    1   17   17
 -3.682821463912216e-05    1    1   18    2
 -0.0003402556576636894    1    1   18    4
 0.001611111593465103    1    1   18    6
 0.001705580015150117    1    1   18    8
 -0.001508112392181217    1    1   18   10
 0.0002886178473399713    1    1   18   12
 -0.0002297626159043133    1    1   18   14
 0.03555636722298089    1    1   18   16
 0.115750481452146    1    1   18   18
 -1.956241054103496e-05    1    1   19    1
 -0.0002244919884596198    1    1   19    3
 -0.001232759870840246    1    1   19    5
 0.001152007426858574    1    1   19    7
 -0.00101118811595895    1    1   19    9
 0.000244051083699218    1    1   19   11
 9.382560903204579e-05    1    1   19   13
 -9.210715049224986e-05    1    1   19   15
 -0.03534939360948039    1    1   19   17
 0.1155883394242452    1    1   19   19
 8.519916460729068e-05    1    1   20    2
 -0.0009961129003857488    1    1   20    4
 -0.0007804497420267177    1    1   20    6
 0.0007225618703070232    1    1   20    8
 0.0001752933937623343    1    1   20   10
 -6.566920788591657e-05    1    1   20   12
 0.0001067730303379363    1    1   20   14
 0.0001736732625097753    1    1   20   16
 0.0350021138501646    1    1   20   18
 0.1127259537145777    1    1   20   20
 -0.0006757031329606835    1    1   21    2
 0.0002169105908612184    1    1   21    4
 0.0001469983136684058    1    1   21    6
 -1.403748856236e-05    1    1   21    8
 5.335015605043166e-06    1    1   21   10
 -7.958861700168868e-06    1    1   21   12
 6.181576451954121e-05    1    1   21   14
 0.000217171294870303    1    1   21   16
 -0.002747560918279312    1    1   21   18
 -0.004036869672033566    1    1   21   20
 0.1506257571968858    1    1   21   21
 0.0004687912395624978    1    1   22    1
 0.0008810940720161779    1    1   22    3
 -0.0001453586678041981    1    1   22    5
 -0.0004143017324279206    1    1   22    7
 -8.960224792374126e-05    1    1   22    9
 5.647900061770718e-05    1    1   22   11
 4.867096990132658e-05    1    1   22   13
 -0.0001996470006500107    1    1   22   15
 0.0009330520732295094    1    1   22   17
 -0.02294569230179524    1    1   22   19
 0.09213514368475159    1    1   22   22
 -0.0005598069683363837    1    1   23    1
 0.0003213194676298046    1    1   23    3
 -0.0006551942955603818    1    1   23    5
 -0.0003585496596994235    1    1   23    7
 -7.107407475609147e-05    1    1   23    9
 3.080650485523333e-05    1    1   23   11
 -1.779710973306634e-07    1    1   23   13
 -9.256342586754993e-06    1    1   23   15
 -2.580227305049292e-05    1    1   23   17
 -0.02645015214711031    1    1   23   19
 -0.008207971761853236    1    1   23   22
 0.1548194006195577    1    1   23   23
 -0.0006283215412732321    1    1   24    2
 -0.0004558737422614817    1    1   24    4
 0.0004389559063142575    1    1   24    6
 4.953081288568964e-05    1    1   24    8
 3.418206654753442e-05    1    1   24   10
 -2.000804691996635e-05    1    1   24   12
 6.951295226250657e-05    1    1   24   14
 0.0002688057080508319    1    1   24   16
 -0.002247969128401046    1    1   24   18
 -0.03474746838210985    1    1   24   20
 -0.03111269445919779    1    1   24   21
 0.1346671790361745    1    1   24   24
 0.06325435128287027    2    1    2    1
 0.03814367746258055    2    1    3    2
 -0.02461444642233488    2    1    4    1
 0.03786206308658904    2    1    4    3
 0.02515764201982799    2    1    5    2
 -0.03740292321492307    2    1    5    4
 -0.0003470942197371235    2    1    6    1
 -0.02547234333526141    2    1    6    3
 -0.03700141122134848    2    1    6    5
 -0.0002129191457369874    2    1    7    2
 -0.02572039931941227    2    1    7    4
 0.03661780432313427    2    1    7    6
 -1.996291150409973e-06    2    1    8    1
 -6.741242683309771e-05    2    1    8    3
 0.02592926726751363    2    1    8    5
 0.03619796393683954    2    1    8    7
 1.667823628368446e-05    2    1    9    2
 0.0001034435813950189    2    1    9    4
 -0.02611234294650611    2    1    9    6
 0.03566639326391248    2    1    9    8
 -9.370861872672921e-07    2    1   10    1
 5.184510534070053e-05    2    1   10    3
 -0.0003217760541849874    2    1   10    5
 -0.02626293488296664    2    1   10    7
 0.03481668117970991    2    1   10    9
 -5.951843639597984e-06    2    1   11    2
 -0.0001020419872199379    2    1   11    4
 -0.0005884104628851843    2    1   11    6
 0.0264032267586302    2    1   11    8
 -0.03275416243756708    2    1   11   10
 -9.899117289942361e-08    2    1   12    1
 -1.614522812668114e-05    2    1   12    3
 0.0001344455967533936    2    1   12    5
 -0.0007657368591104038    2    1   12    7
 0.02705620062878129    2    1   12    9
 0.05539926117235008    2    1   12   11
 -1.394193685547163e-05    2    1   13    2
 -5.869166046601785e-05    2    1   13    4
 -0.000314321674251032    2    1   13    6
 -0.00315346229398562    2    1   13    8
 0.01968102892436939    2    1   13   10
 0.01825411321621002    2    1   13   12
 1.079434977916023e-05    2    1   14    1
 5.313102769412444e-05    2    1   14    3
 -0.0002578857112531547    2    1   14    5
 0.002147263390192837    2    1   14    7
 -0.007706017248775861    2    1   14    9
 0.009472214551093769    2    1   14   11
 -0.0564704299317563    2    1   14   13
 3.731168782667661e-05    2    1   15    2
 0.0001780971270079483    2    1   15    4
 0.001341705984612054    2    1   15    6
 -0.004643453192995738    2    1   15    8
 -0.0001911809389838429    2    1   15   10
 0.01983643529247919    2    1   15   12
 0.0316617788386816    2    1   15   14
 2.090434160176725e-05    2    1   16    1
 0.0001191857705788734    2    1   16    3
 -0.0008628035857141336    2    1   16    5
 -0.003098275433450781    2    1   16    7
 0.000268194624113819    2    1   16    9
 0.00715144062921455    2    1   16   11
 0.02880339703927959    2    1   16   13
 0.03500584617067083    2    1   16   15
 -7.795473286997313e-05    2    1   17    2
 -0.0005760978091494664    2    1   17    4
 0.002187634989008177    2    1   17    6
 -0.000243188034566997    2    1   17    8
 0.004153715703690618    2    1   17   10
 0.00385339441215096    2    1   17   12
 0.02743596122941215    2    1   17   14
 -0.03607432750674695    2    1   17   16
 -4.494721714221658e-05    2    1   18    1
 -0.0003913711785249858    2    1   18    3
 -0.00161681587928141    2    1   18    5
 -0.0001933088256485045    2    1   18    7
 0.002671158897653157    2    1   18    9
 0.002628755628550956    2    1   18   11
 0.001134011736386017    2    1   18   13
 0.02722472614662773    2    1   18   15
 0.0366571451327851    2    1   18   17
 -0.0002601892296040624    2    1   19    2
 0.001252075784304004    2    1   19    4
 -0.0001516522695585419    2    1   19    6
 0.00180537291373933    2    1   19    8
 -0.001699702998007718    2    1   19   10
 0.0003127010790588765    2    1   19   12
 -0.001099468180792245    2    1   19   14
 0.0270678796401714    2    1   19   16
 0.036888698342726    2    1   19   18
 0.0001540211039212076    2    1   20    1
 -0.001039093625968754    2    1   20    3
 -9.856041897878063e-05    2    1   20    5
 -0.001241316115913329    2    1   20    7
 0.001145581980672948    2    1   20    9
 -0.000273282097443899    2    1   20   11
 -0.0002793594487103266    2    1   20   13
 0.00108695898944353    2    1   20   15
 0.02675907574853962    2    1   20   17
 -0.03611310875456572    2    1   20   19
 0.0005486781292234136    2    1   21    1
 -0.0006786841808508827    2    1   21    3
 -0.00016224786195239    2    1   21    5
 0.0002147469338910262    2    1   21    7
 -2.942673398242989e-05    2    1   21    9
 -6.285212590937447e-06    2    1   21   11
 -3.603490567789022e-05    2    1   21   13
 0.0001439203245015238    2    1   21   15
 -0.002280324759221681    2    1   21   17
 0.005151892523220044    2    1   21   19
 0.0005968767559904975    2    1   22    2
 0.0004191886303620779    2    1   22    4
 0.0003191049947317259    2    1   22    6
 -0.000616441557446867    2    1   22    8
 -0.0001405339502836311    2    1   22   10
 5.913509612172959e-05    2    1   22   12
 -0.0003326650658893515    2    1   22   14
 -0.001431093196378179    2    1   22   16
 -0.01718642911621562    2    1   22   18
 -0.01211996308533912    2    1   22   20
 -0.04131389381701522    2    1   22   21
 0.0006093895577914384    2    1   23    2
 -0.0005245105139194889    2    1   23    4
 0.0009968926812247969    2    1   23    6
 -0.0005463667147153075    2    1   23    8
 -0.0001116059570909829    2    1   23   10
 3.853883792802104e-05    2    1   23   12
 -0.0001606243001582913    2    1   23   14
 -0.0005315015973854217    2    1   23   16
 -0.02069210657179757    2    1   23   18
 -0.04199936524781012    2    1   23   20
 0.06217829389270876    2    1   23   21
 -0.0009380029696799999    2    1   24    1
 0.0002482629023694292    2    1   24    3
 0.0008049840583129242    2    1   24    5
 0.0006322291596832889    2    1   24    7
 6.91346007316749e-05    2    1   24    9
 -4.941346601460223e-05    2    1   24   11
 -8.140817175529211e-05    2    1   24   13
 0.0003576354667011705    2    1   24   15
 -0.002497611732814851    2    1   24   17
 0.02716346221052138    2    1   24   19
 -0.05428994486817327    2    1   24   22
 -0.007621436714049617    2    1   24   23
 0.1184241625252768    2    2    1    1
 0.1349141413135803    2    2    2    2
 0.01658876978615932    2    2    3    1
 0.114032673683105    2    2    3    3
 -0.004194391694596664    2    2    4    2
 0.1134578850673804    2    2    4    4
 0.02069007599168259    2    2    5    1
 0.004820014711863094    2    2    5    3
 0.1128505850861796    2    2    5    5
 -0.02107502240901222    2    2    6    2
 -0.005512055675321249    2    2    6    4
 0.1123013988881078    2    2    6    6
 -0.0001931519862116114    2    2    7    1
 -0.02128756671060025    2    2    7    3
 0.006130408259794284    2    2    7    5
 0.1117492376024732    2    2    7    7
 -2.021650125562033e-05    2    2    8    2
 -0.02142798878105442    2    2    8    4
 -0.006749473896178734    2    2    8    6
 0.1111080348692185    2    2    8    8
 1.740020142980934e-05    2    2    9    1
 0.0001814278466474029    2    2    9    3
 0.02149442722628752    2    2    9    5
 -0.00746321465985935    2    2    9    7
 0.1101762127216204    2    2    9    9
 5.12489065046598e-05    2    2   10    2
 0.0004340966373055245    2    2   10    4
 -0.02146539245141552    2    2   10    6
 -0.008477853058174601    2    2   10    8
 0.1078758878483021    2    2   10   10
 -6.860314061654313e-06    2    2   11    1
 -0.0001041283659349327    2    2   11    3
 0.0007397059890025225    2    2   11    5
 0.02134723661949929    2    2   11    7
 0.01081458717042664    2    2   11    9
 0.1233953302002693    2    2   11   11
 -1.617977868591074e-05    2    2   12    2
 -0.0001419204464723353    2    2   12    4
 -0.0009409284203358223    2    2   12    6
 0.02181540093674813    2    2   12    8
 -0.005837908305813697    2    2   12   10
 0.1181371060953786    2    2   12   12
 -1.29480078861874e-05    2    2   13    1
 -6.537874049636176e-05    2    2   13    3
 0.0003342552345867294    2    2   13    5
 -0.003376639743698484    2    2   13    7
 0.01584848516314737    2    2   13    9
 -7.081638762975948e-05    2    2   13   11
 0.1196353095025604    2    2   13   13
 5.791122993747087e-05    2    2   14    2
 0.0002796906224158098    2    2   14    4
 0.002298447430359198    2    2   14    6
 -0.005246305733889131    2    2   14    8
 -0.01681764017596392    2    2   14   10
 0.0001004155886545084    2    2   14   12
 0.1242566029104884    2    2   14   14
 3.470333649396059e-05    2    2   15    1
 0.0001945795971596955    2    2   15    3
 -0.001445850438184469    2    2   15    5
 -0.003231679414793547    2    2   15    7
 -0.004237924048218563    2    2   15    9
 0.01670691151431071    2    2   15   11
 -0.004931253673907086    2    2   15   13
 0.1076883647362062    2    2   15   15
 0.0001277408385316299    2    2   16    2
 0.0009314337858640658    2    2   16    4
 -0.00222790365672115    2    2   16    6
 -0.002427934145362602    2    2   16    8
 -0.00394252497497871    2    2   16   10
 0.0153914800416424    2    2   16   12
 -0.01294423540882976    2    2   16   14
 0.1113539738994263    2    2   16   16
 -7.259218138128435e-05    2    2   17    1
 -0.0006167674238115937    2    2   17    3
 -0.001620744235992213    2    2   17    5
 0.001631504840095475    2    2   17    7
 0.002154875544891886    2    2   17    9
 -0.004234517800970556    2    2   17   11
 -0.02314021010861909    2    2   17   13
 0.009464578793025105    2    2   17   15
 0.1126166040487633    2    2   17   17
 -0.0004086861576833392    2    2   18    2
 0.001236153292860377    2    2   18    4
 0.001171743353302778    2    2   18    6
 0.001374956112282172    2    2   18    8
 0.002424843755205615    2    2   18   10
 0.004080343365280395    2    2   18   12
 0.02190240825944015    2    2   18   14
 0.008338180010435809    2    2   18   16
 0.1133586642118477    2    2   18   18
 -0.0002453465145717165    2    2   19    1
 0.0009951346017519737    2    2   19    3
 -0.0008909551745734227    2    2   19    5
 0.000929588042548462    2    2   19    7
 0.001559364730822068    2    2   19    9
 0.002800110969373043    2    2   19   11
 0.001501167834388653    2    2   19   13
 0.02184559922979392    2    2   19   15
 -0.00775956021709949    2    2   19   17
 0.1137692978190223    2    2   19   19
 -0.0008580353936944553    2    2   20    2
 -0.0007547114713511898    2    2   20    4
 -0.0006696706115870048    2    2   20    6
 -0.001016128173758406    2    2   20    8
 0.001841444356469506    2    2   20   10
 -0.0003338370096420563    2    2   20   12
 0.00163693791135654    2    2   20   14
 -0.02151283916768625    2    2   20   16
 0.008063839639526237    2    2   20   18
 0.1131240642069959    2    2   20   20
 0.0001566943750815368    2    2   21    2
 -0.0006938210753800944    2    2   21    4
 0.0003286455627522653    2    2   21    6
 0.0002693257039888134    2    2   21    8
 -4.600235437986409e-05    2    2   21   10
 -6.935755881076495e-06    2    2   21   12
 0.0001377975561229726    2    2   21   14
 0.002128244062954185    2    2   21   16
 0.001509466637254972    2    2   21   18
 -0.0173743247028895    2    2   21   20
 0.1269463896805786    2    2   21   21
 0.0004576918604879667    2    2   22    1
 0.0007411090070175404    2    2   22    3
 -0.0007287528533162156    2    2   22    5
 6.082530233181803e-05    2    2   22    7
 -0.0009375802595188156    2    2   22    9
 0.0002142460537950244    2    2   22   11
 0.0003290932340177036    2    2   22   13
 -0.001747262348247275    2    2   22   15
 -0.01292859424574221    2    2   22   17
 -0.01871838267577689    2    2   22   19
 0.1311335967196887    2    2   22   22
 0.0007368462692242711    2    2   23    1
 0.000104403228382263    2    2   23    3
 -7.317271704625553e-06    2    2   23    5
 0.0009764519573617373    2    2   23    7
 -0.0008343149511680858    2    2   23    9
 0.0001683625876036619    2    2   23   11
 0.0001808048393879408    2    2   23   13
 -0.0008472407681815036    2    2   23   15
 -0.01707707423243323    2    2   23   17
 0.009096284724767714    2    2   23   19
 -0.01097733845118692    2    2   23   22
 0.1270115993805323    2    2   23   23
 -0.0005782827596902439    2    2   24    2
 -0.0002706259151280383    2    2   24    4
 -0.0006312176306142391    2    2   24    6
 0.0008928622650033208    2    2   24    8
 0.0001107252539176507    2    2   24   10
 -5.688440965744262e-05    2    2   24   12
 0.0004138922792761256    2    2   24   14
 0.002743818208592399    2    2   24   16
 0.02046693675481806    2    2   24   18
 0.0007347123134570366    2    2   24   20
 0.02033303043018687    2    2   24   21
 0.1161730997475366    2    2   24   24
 -0.03241155856391856    3    1    1    1
 0.01658876978615932    3    1    2    2
 0.04939452184915542    3    1    3    1
 -0.00363313475881796    3    1    3    3
 0.02928627420848576    3    1    4    2
 -0.003340724042305857    3    1    4    4
 0.01991827993995298    3    1    5    1
 -0.02901773655709011    3    1    5    3
 -0.003244457805151094    3    1    5    5
 -0.02032604527929565    3    1    6    2
 0.02860100477868377    3    1    6    4
 -0.003167935141411966    3    1    6    6
 -7.900277703899467e-05    3    1    7    1
 -0.02060116574625882    3    1    7    3
 -0.02820367471998463    3    1    7    5
 -0.003081122854805152    3    1    7    7
 0.0001371920592413856    3    1    8    2
 -0.02083761847284482    3    1    8    4
 0.027779896863503    3    1    8    6
 -0.002989936942410319    3    1    8    8
 7.799971456165207e-05    3    1    9    1
 0.0003422356552527876    3    1    9    3
 0.0210449428365621    3    1    9    5
 0.02724626613086052    3    1    9    7
 -0.002995706394783301    3    1    9    9
 0.0001342718876894158    3    1   10    2
 0.0005673193057603755    3    1   10    4
 -0.02122006174460903    3    1   10    6
 0.02638320462868275    3    1   10    8
 -0.003929540238528276    3    1   10   10
 -3.337173389752687e-05    3    1   11    1
 -0.0001820715051675601    3    1   11    3
 0.0008131170267908173    3    1   11    5
 0.02138855727476013    3    1   11    7
 -0.02418600523397856    3    1   11    9
 0.01395422525558687    3    1   11   11
 -4.170733221119625e-05    3    1   12    2
 -0.0001895734695402951    3    1   12    4
 -0.0009312000777928504    3    1   12    6
 0.02212938010539821    3    1   12    8
 -0.0412362042151381    3    1   12   10
 -0.02318436602178536    3    1   12   12
 -1.46942152534997e-05    3    1   13    1
 -6.481597171964634e-05    3    1   13    3
 0.0003113931025116196    3    1   13    5
 -0.003111409579746055    3    1   13    7
 0.01871176509962965    3    1   13    9
 0.01939505151962197    3    1   13   11
 -0.02187406663853502    3    1   13   13
 5.87279660041887e-05    3    1   14    2
 0.0002624856187120608    3    1   14    4
 0.002108301398208447    3    1   14    6
 -0.007177650122918919    3    1   14    8
 -0.008730593744352255    3    1   14   10
 -0.01905529948625829    3    1   14   12
 0.0158864962274636    3    1   14   14
 3.411642148394204e-05    3    1   15    1
 0.0001832542678544323    3    1   15    3
 -0.001320945182288764    3    1   15    5
 -0.004406764736443581    3    1   15    7
 0.0005618998430565484    3    1   15    9
 0.009394620645141533    3    1   15   11
 -0.04227831492147281    3    1   15   13
 -0.004771436995127804    3    1   15   15
 0.0001192753628495092    3    1   16    2
 0.0008476095242325151    3    1   16    4
 -0.002977468050674223    3    1   16    6
 0.0007299351448996432    3    1   16    8
 0.0002015070643958464    3    1   16   10
 0.01895696129979583    3    1   16   12
 0.02323014080234079    3    1   16   14
 -0.002871548982731502    3    1   16   16
 -6.740024635253018e-05    3    1   17    1
 -0.0005585629186056211    3    1   17    3
 -0.002123170686552339    3    1   17    5
 -0.0005690486204101082    3    1   17    7
 -0.0004452842046109079    3    1   17    9
 -0.006664804394625443    3    1   17   11
 -0.02371625978501459    3    1   17   13
 -0.02650587977498407    3    1   17   15
 -0.002634487465312189    3    1   17   17
 -0.0003705834353673887    3    1   18    2
 0.001581402033345677    3    1   18    4
 -0.0004356701872419579    3    1   18    6
 -0.0003319384915051883    3    1   18    8
 0.00396222793768693    3    1   18   10
 0.003789129249546673    3    1   18   12
 0.02229918855484924    3    1   18   14
 -0.02746766342418769    3    1   18   16
 -0.002419607118688157    3    1   18   18
 -0.0002239065807857744    3    1   19    1
 0.001222006418987868    3    1   19    3
 0.0003371521797784423    3    1   19    5
 -0.0002227988900244173    3    1   19    7
 0.00258653069249469    3    1   19    9
 0.00256401051616409    3    1   19   11
 0.001381879581853939    3    1   19   13
 0.02209757799098251    3    1   19   15
 0.02784383502270388    3    1   19   17
 -0.001840262663455432    3    1   19   19
 -0.0009446906732366821    3    1   20    2
 0.0002362700152254087    3    1   20    4
 0.000109897384304019    3    1   20    6
 -0.001747253904626415    3    1   20    8
 0.001671643982430993    3    1   20   10
 -0.0002768041096954508    3    1   20   12
 0.001507683531751851    3    1   20   14
 -0.02184400693038756    3    1   20   16
 -0.02718847088076989    3    1   20   18
 0.0004060323717269519    3    1   20   20
 0.000825993800779177    3    1   21    2
 -0.0009079935872968775    3    1   21    4
 0.0001802248658131808    3    1   21    6
 0.000285460143299802    3    1   21    8
 -5.046240563407942e-05    3    1   21   10
 1.042723022749237e-06    3    1   21   12
 7.96310636234426e-05    3    1   21   14
 0.00192091136468056    3    1   21   16
 0.00432054621541774    3    1   21   18
 -0.01338669264839971    3    1   21   20
 -0.02392691732839262    3    1   21   21
 -6.723463971744362e-06    3    1   22    1
 -0.0001351154598292351    3    1   22    3
 -0.0005843630256855473    3    1   22    5
 0.0004782205681117299    3    1   22    7
 -0.0008521221914498691    3    1   22    9
 0.0001627802354919653    3    1   22   11
 0.0002849771589889408    3    1   22   13
 -0.001537872995075529    3    1   22   15
 -0.01398503331836051    3    1   22   17
 0.00430728181650138    3    1   22   19
 0.03933614879284394    3    1   22   22
 0.001290274870097991    3    1   23    1
 -0.0002136882445479672    3    1   23    3
 0.000646761831574481    3    1   23    5
 0.001338327684433069    3    1   23    7
 -0.0007637601669707656    3    1   23    9
 0.0001416064898906141    3    1   23   11
 0.0001836688284424983    3    1   23   13
 -0.0008175663380709198    3    1   23   15
 -0.01715039268328146    3    1   23   17
 0.03584052982340635    3    1   23   19
 -0.002760260691450022    3    1   23   22
 -0.02811553919485005    3    1   23   23
 4.667748913602743e-05    3    1   24    2
 0.0001828412149253993    3    1   24    4
 -0.001071680997198433    3    1   24    6
 0.0008447063910772693    3    1   24    8
 8.058900921594707e-05    3    1   24   10
 -3.751009013329811e-05    3    1   24   12
 0.0003510486836211806    3    1   24   14
 0.002459440255747803    3    1   24   16
 0.0228715218587188    3    1   24   18
 0.03579858587054077    3    1   24   20
 0.05185820705973505    3    1   24   21
 -0.01863494165547414    3    1   24   24
 0.03814367746258055    3    2    2    1
 0.05327886040136523    3    2    3    2
 0.01544728199025764    3    2    4    1
 0.03630671102903601    3    2    4    3
 0.001877981634513417    3    2    5    2
 -0.03608597096368547    3    2    5    4
 -0.01714848918842776    3    2    6    1
 -0.002404831580618914    3    2    6    3
 -0.03577620037761167    3    2    6    5
 -0.01730876373315416    3    2    7    2
 -0.003054793978124813    3    2    7    4
 0.0354705284137629    3    2    7    6
 0.00010064225782528    3    2    8    1
 -0.01741296225173362    3    2    8    3
 0.003692155756271438    3    2    8    5
 0.03512350410022108    3    2    8    7
 0.0003841103148993271    3    2    9    2
 -0.01746335684929361    3    2    9    4
 -0.004402455525694298    3    2    9    6
 0.03457016821047637    3    2    9    8
 0.0001162690116494341    3    2   10    1
 0.0006643512442147002    3    2   10    3
 0.01743072443189047    3    2   10    5
 -0.005391122960734985    3    2   10    7
 0.03278014869481594    3    2   10    9
 -0.0001881590474380806    3    2   11    2
 -0.0009544392449877823    3    2   11    4
 0.01733273225778304    3    2   11    6
 0.007687744609149192    3    2   11    8
 -0.04454869607897238    3    2   11   10
 -3.679875204867008e-05    3    2   12    1
 -0.0002048415214983058    3    2   12    3
 0.001090416906568662    3    2   12    5
 0.01789269444032662    3    2   12    7
 -0.005146124372343519    3    2   12    9
 0.0405929074906819    3    2   12   11
 -7.248955765461109e-05    3    2   13    2
 -0.0003386893769090345    3    2   13    4
 -0.003255644995772584    3    2   13    6
 0.01396227609857168    3    2   13    8
 0.001376441465818536    3    2   13   10
 0.0152387321579036    3    2   13   12
 5.428563624530107e-05    3    2   14    1
 0.0002895821079800477    3    2   14    3
 -0.00222321074739138    3    2   14    5
 -0.004324881206363228    3    2   14    7
 -0.01560230857375538    3    2   14    9
 -0.007630381880586989    3    2   14   11
 -0.0425072620625175    3    2   14   13
 0.0001964528136151993    3    2   15    2
 0.001402183233579853    3    2   15    4
 -0.002709337853387971    3    2   15    6
 -0.003701059477394441    3    2   15    8
 -0.01040459785620071    3    2   15   10
 0.001911194877563515    3    2   15   12
 0.04517071817003449    3    2   15   14
 0.0001098087323602884    3    2   16    1
 0.0008951105464297677    3    2   16    3
 0.001900853191108265    3    2   16    5
 -0.002163239274458186    3    2   16    7
 6.537637156103174e-05    3    2   16    9
 0.01578230907622227    3    2   16   11
 -0.004274984677603815    3    2   16   13
 0.03229280702926543    3    2   16   15
 -0.0005746169007245987    3    2   17    2
 0.001408009639006728    3    2   17    4
 0.001468685784843438    3    2   17    6
 -0.0003416910191000641    3    2   17    8
 0.003581005917516926    3    2   17   10
 -0.01345317033579405    3    2   17   12
 0.009659864812739453    3    2   17   14
 -0.03518677346854466    3    2   17   16
 -0.0003398692033802905    3    2   18    1
 0.001094580235796463    3    2   18    3
 -0.001063649125991848    3    2   18    5
 -0.0002798550480036821    3    2   18    7
 0.002053254394461941    3    2   18    9
 -0.003305406377807135    3    2   18   11
 -0.01895223782914638    3    2   18   13
 0.006402514381126239    3    2   18   15
 0.03603551369161336    3    2   18   17
 0.0009021839849382067    3    2   19    2
 0.000808372778218438    3    2   19    4
 -0.0002030211564532439    3    2   19    6
 0.001367383673556761    3    2   19    8
 0.001906504253643472    3    2   19   10
 0.003921541728404439    3    2   19   12
 0.017607185760965    3    2   19   14
 0.005494657774380218    3    2   19   16
 0.03665367482739221    3    2   19   18
 -0.0008809048962441162    3    2   20    1
 -0.0006329971695979544    3    2   20    3