 &FCI NORB=   6,NELEC= 6,MS2=0,
  ORBSYM=1,1,1,1,1,1,
  ISYM=1,
 &END
 0.3054779358596863    1    1    1    1
 0.3011676103062119    1    1    2    2
 0.3011676169218985    1    1    3    3
 0.303978272196986    1    1    4    4
 -3.967675902410983e-08    1    1    5    1
 0.3039783335151794    1    1    5    5
 -3.403346804636137e-08    1    1    6    2
 0.3084004605810381    1    1    6    6
 0.08829629762512743    2    1    2    1
 0.06374702837824289    2    1    4    3
 0.06374700143302055    2    1    5    2
 -1.301361326794433e-08    2    1    6    1
 -0.09075081204789995    2    1    6    5
 0.3011676103062118    2    2    1    1
 0.3214809850225835    2    2    2    2
 0.2746358018360051    2    2    3    3
 0.2814800093264452    2    2    4    4
 0.03294434257340255    2    2    5    1
 0.3226321654076465    2    2    5    5
 -0.03123472313555761    2    2    6    2
 0.307032157129052    2    2    6    6
 0.08829630316991335    3    1    3    1
 0.06374702864983572    3    1    4    2
 -0.06374706114247015    3    1    5    3
 0.09075073778009365    3    1    6    4
 0.02342259398051756    3    2    3    2
 0.03294437981411222    3    2    4    1
 -0.02057608003665273    3    2    5    4
 0.03123467064880271    3    2    6    3
 0.3011676169218984    3    3    1    1
 0.2746358018360051    3    3    2    2
 0.3214809926428439    3    3    3    3
 0.3226321172742448    3    3    4    4
 -0.03294441990926082    3    3    5    1
 0.2814800945792287    3    3    5    5
 0.03123464743856776    3    3    6    2
 0.3070320856889185    3    3    6    6
 0.03294437981411222    4    1    3    2
 0.04685352001707163    4    1    4    1
 -0.03049172334634851    4    1    5    4
 0.04549068810313002    4    1    6    3
 0.06374702864983572    4    2    3    1
 0.04894117166729987    4    2    4    2
 -0.04435170504134479    4    2    5    3
 0.06758350117030501    4    2    6    4
 0.06374702837824289    4    3    2    1
 0.07994779392488852    4    3    4    3
 0.013345027274687    4    3    5    2
 0.03454013782680317    4    3    6    1
 -0.06758356896960191    4    3    6    5
 0.303978272196986    4    4    1    1
 0.2814800093264452    4    4    2    2
 0.3226321172742448    4    4    3    3
 0.33210983080087    4    4    4    4
 -0.03049173276234971    4    4    5    1
 0.2859570495647621    4    4    5    5
 0.03240884014570527    4    4    6    2
 0.3161648249153804    4    4    6    6
 -3.967675903148241e-08    5    1    1    1
 0.03294434257340254    5    1    2    2
 -0.03294441990926079    5    1    3    3
 -0.0304917327623497    5    1    4    4
 0.04685352722429412    5    1    5    1
 0.03049161602909208    5    1    5    5
 -0.04549071705960188    5    1    6    2
 3.762772402687853e-09    5    1    6    6
 0.06374700143302056    5    2    2    1
 0.013345027274687    5    2    4    3
 0.07994778076507053    5    2    5    2
 -0.0345401743770848    5    2    6    1
 -0.06758352888577265    5    2    6    5
 -0.06374706114247017    5    3    3    1
 -0.04435170504134479    5    3    4    2
 0.04894122244959855    5    3    5    3
 -0.06758354686142184    5    3    6    4
 -0.02057608003665273    5    4    3    2
 -0.0304917233463485    5    4    4    1
 0.02307650193458431    5    4    5    4
 -0.03240890969070956    5    4    6    3
 0.3039783335151794    5    5    1    1
 0.3226321654076465    5    5    2    2
 0.2814800945792288    5    5    3    3
 0.2859570495647622    5    5    4    4
 0.03049161602909207    5    5    5    1
 0.332109942223993    5    5    5    5
 -0.03240890064847055    5    5    6    2
 0.3161649937279098    5    5    6    6
 -1.301361326257753e-08    6    1    2    1
 0.03454013782680318    6    1    4    3
 -0.03454017437708481    6    1    5    2
 0.03586868808728476    6    1    6    1
 1.426102670849805e-08    6    1    6    5
 -3.403346803476041e-08    6    2    1    1
 -0.03123472313555765    6    2    2    2
 0.03123464743856775    6    2    3    3
 0.03240884014570528    6    2    4    4
 -0.04549071705960189    6    2    5    1
 -0.03240890064847059    6    2    5    5
 0.0466051710166652    6    2    6    2
 -1.085826111810531e-07    6    2    6    6
 0.03123467064880271    6    3    3    2
 0.04549068810313001    6    3    4    1
 -0.03240890969070956    6    3    5    4
 0.04660511949316314    6    3    6    3
 0.09075073778009368    6    4    3    1
 0.06758350117030502    6    4    4    2
 -0.06758354686142187    6    4    5    3
 0.1006058468708209    6    4    6    4
 -0.09075081204789995    6    5    2    1
 -0.06758356896960191    6    5    4    3
 -0.06758352888577264    6    5    5    2
 1.426102669917391e-08    6    5    6    1
 0.1006060388799176    6    5    6    5
 0.308400460581038    6    6    1    1
 0.307032157129052    6    6    2    2
 0.3070320856889185    6    6    3    3
 0.3161648249153804    6    6    4    4
 3.762772354115596e-09    6    6    5    1
 0.3161649937279098    6    6    5    5
 -1.085826111767163e-07    6    6    6    2
 0.3250171322843501    6    6    6    6
 -1.830966326706462    1    1  0  0
 -1.693511594217613    2    2  0  0
 -1.693511577747226    3    3  0  0
 -1.179611963664229e-15    4    3  0  0
 -1.459503333363219    4    4  0  0
 8.083531799138455e-08    5    1  0  0
 -1.068589661201713e-15    5    3  0  0
 -1.459503409481395    5    5  0  0
 1.434632651217682e-07    6    2  0  0
 1.589006703994755e-15    6    4  0  0
 -1.291021631419372    6    6  0  0
 -224.2424918541479  0  0  0  0
