[Molden Format]
made by pyscf v[2.6.2]
[Atoms] (AU)
C   1   6    -6.89057736642100     1.34708197213400     0.00000000000000
C   2   6    -6.89057736642100    -1.34708197213400     0.00000000000000
H   3   1    -8.67851064272000    -2.35274940364800     0.00000000000000
H   4   1    -8.67851064272000     2.35274940364800     0.00000000000000
C   5   6    -4.67281867250400     2.65001080964900     0.00000000000000
C   6   6    -4.67281867250400    -2.65001080964900     0.00000000000000
C   7   6    -2.30211174438900     1.35516771450000     0.00000000000000
C   8   6    -2.30211174438900    -1.35516771450000     0.00000000000000
H   9   1    -4.66415233515700     4.70308585273500     0.00000000000000
H   10   1    -4.66415233515700    -4.70308585273500     0.00000000000000
C   11   6     0.00000000000000     2.63879101222700     0.00000000000000
C   12   6     0.00000000000000    -2.63879101222700     0.00000000000000
C   13   6     2.30211174438900     1.35516771450000     0.00000000000000
C   14   6     2.30211174438900    -1.35516771450000     0.00000000000000
H   15   1     0.00000000000000     4.69349839262500     0.00000000000000
H   16   1     0.00000000000000    -4.69349839262500     0.00000000000000
C   17   6     4.67281867250400     2.65001080964900     0.00000000000000
C   18   6     4.67281867250400    -2.65001080964900     0.00000000000000
C   19   6     6.89057736642100     1.34708197213400     0.00000000000000
C   20   6     6.89057736642100    -1.34708197213400     0.00000000000000
H   21   1     4.66415233515700     4.70308585273500     0.00000000000000
H   22   1     4.66415233515700    -4.70308585273500     0.00000000000000
H   23   1     8.67851064272000     2.35274940364800     0.00000000000000
H   24   1     8.67851064272000    -2.35274940364800     0.00000000000000
[GTO]
1 0
 s    6 1.00
             3047.5249  0.0018347001629433
             457.36951    0.01403730124668
             103.94869   0.068842606114048
             29.210155    0.23218442062076
              9.286663    0.46794134155879
              3.163927    0.36231203217765
 s    3 1.00
             7.8682724   -0.11933240861517
             1.8812885   -0.16085421161283
             0.5442493     1.1434564825515
 s    1 1.00
             0.1687144                   1
 p    3 1.00
             7.8682724   0.068999095584993
             1.8812885    0.31642397975315
             0.5442493    0.74430825237435
 p    1 1.00
             0.1687144                   1

2 0
 s    6 1.00
             3047.5249  0.0018347001629433
             457.36951    0.01403730124668
             103.94869   0.068842606114048
             29.210155    0.23218442062076
              9.286663    0.46794134155879
              3.163927    0.36231203217765
 s    3 1.00
             7.8682724   -0.11933240861517
             1.8812885   -0.16085421161283
             0.5442493     1.1434564825515
 s    1 1.00
             0.1687144                   1
 p    3 1.00
             7.8682724   0.068999095584993
             1.8812885    0.31642397975315
             0.5442493    0.74430825237435
 p    1 1.00
             0.1687144                   1

3 0
 s    3 1.00
             18.731137    0.03349459952309
             2.8253937    0.23472694665786
             0.6401217    0.81375731841339
 s    1 1.00
             0.1612778                   1

4 0
 s    3 1.00
             18.731137    0.03349459952309
             2.8253937    0.23472694665786
             0.6401217    0.81375731841339
 s    1 1.00
             0.1612778                   1

5 0
 s    6 1.00
             3047.5249  0.0018347001629433
             457.36951    0.01403730124668
             103.94869   0.068842606114048
             29.210155    0.23218442062076
              9.286663    0.46794134155879
              3.163927    0.36231203217765
 s    3 1.00
             7.8682724   -0.11933240861517
             1.8812885   -0.16085421161283
             0.5442493     1.1434564825515
 s    1 1.00
             0.1687144                   1
 p    3 1.00
             7.8682724   0.068999095584993
             1.8812885    0.31642397975315
             0.5442493    0.74430825237435
 p    1 1.00
             0.1687144                   1

6 0
 s    6 1.00
             3047.5249  0.0018347001629433
             457.36951    0.01403730124668
             103.94869   0.068842606114048
             29.210155    0.23218442062076
              9.286663    0.46794134155879
              3.163927    0.36231203217765
 s    3 1.00
             7.8682724   -0.11933240861517
             1.8812885   -0.16085421161283
             0.5442493     1.1434564825515
 s    1 1.00
             0.1687144                   1
 p    3 1.00
             7.8682724   0.068999095584993
             1.8812885    0.31642397975315
             0.5442493    0.74430825237435
 p    1 1.00
             0.1687144                   1

7 0
 s    6 1.00
             3047.5249  0.0018347001629433
             457.36951    0.01403730124668
             103.94869   0.068842606114048
             29.210155    0.23218442062076
              9.286663    0.46794134155879
              3.163927    0.36231203217765
 s    3 1.00
             7.8682724   -0.11933240861517
             1.8812885   -0.16085421161283
             0.5442493     1.1434564825515
 s    1 1.00
             0.1687144                   1
 p    3 1.00
             7.8682724   0.068999095584993
             1.8812885    0.31642397975315
             0.5442493    0.74430825237435
 p    1 1.00
             0.1687144                   1

8 0
 s    6 1.00
             3047.5249  0.0018347001629433
             457.36951    0.01403730124668
             103.94869   0.068842606114048
             29.210155    0.23218442062076
              9.286663    0.46794134155879
              3.163927    0.36231203217765
 s    3 1.00
             7.8682724   -0.11933240861517
             1.8812885   -0.16085421161283
             0.5442493     1.1434564825515
 s    1 1.00
             0.1687144                   1
 p    3 1.00
             7.8682724   0.068999095584993
             1.8812885    0.31642397975315
             0.5442493    0.74430825237435
 p    1 1.00
             0.1687144                   1

9 0
 s    3 1.00
             18.731137    0.03349459952309
             2.8253937    0.23472694665786
             0.6401217    0.81375731841339
 s    1 1.00
             0.1612778                   1

10 0
 s    3 1.00
             18.731137    0.03349459952309
             2.8253937    0.23472694665786
             0.6401217    0.81375731841339
 s    1 1.00
             0.1612778                   1

11 0
 s    6 1.00
             3047.5249  0.0018347001629433
             457.36951    0.01403730124668
             103.94869   0.068842606114048
             29.210155    0.23218442062076
              9.286663    0.46794134155879
              3.163927    0.36231203217765
 s    3 1.00
             7.8682724   -0.11933240861517
             1.8812885   -0.16085421161283
             0.5442493     1.1434564825515
 s    1 1.00
             0.1687144                   1
 p    3 1.00
             7.8682724   0.068999095584993
             1.8812885    0.31642397975315
             0.5442493    0.74430825237435
 p    1 1.00
             0.1687144                   1

12 0
 s    6 1.00
             3047.5249  0.0018347001629433
             457.36951    0.01403730124668
             103.94869   0.068842606114048
             29.210155    0.23218442062076
              9.286663    0.46794134155879
              3.163927    0.36231203217765
 s    3 1.00
             7.8682724   -0.11933240861517
             1.8812885   -0.16085421161283
             0.5442493     1.1434564825515
 s    1 1.00
             0.1687144                   1
 p    3 1.00
             7.8682724   0.068999095584993
             1.8812885    0.31642397975315
             0.5442493    0.74430825237435
 p    1 1.00
             0.1687144                   1

13 0
 s    6 1.00
             3047.5249  0.0018347001629433
             457.36951    0.01403730124668
             103.94869   0.068842606114048
             29.210155    0.23218442062076
              9.286663    0.46794134155879
              3.163927    0.36231203217765
 s    3 1.00
             7.8682724   -0.11933240861517
             1.8812885   -0.16085421161283
             0.5442493     1.1434564825515
 s    1 1.00
             0.1687144                   1
 p    3 1.00
             7.8682724   0.068999095584993
             1.8812885    0.31642397975315
             0.5442493    0.74430825237435
 p    1 1.00
             0.1687144                   1

14 0
 s    6 1.00
             3047.5249  0.0018347001629433
             457.36951    0.01403730124668
             103.94869   0.068842606114048
             29.210155    0.23218442062076
              9.286663    0.46794134155879
              3.163927    0.36231203217765
 s    3 1.00
             7.8682724   -0.11933240861517
             1.8812885   -0.16085421161283
             0.5442493     1.1434564825515
 s    1 1.00
             0.1687144                   1
 p    3 1.00
             7.8682724   0.068999095584993
             1.8812885    0.31642397975315
             0.5442493    0.74430825237435
 p    1 1.00
             0.1687144                   1

15 0
 s    3 1.00
             18.731137    0.03349459952309
             2.8253937    0.23472694665786
             0.6401217    0.81375731841339
 s    1 1.00
             0.1612778                   1

16 0
 s    3 1.00
             18.731137    0.03349459952309
             2.8253937    0.23472694665786
             0.6401217    0.81375731841339
 s    1 1.00
             0.1612778                   1

17 0
 s    6 1.00
             3047.5249  0.0018347001629433
             457.36951    0.01403730124668
             103.94869   0.068842606114048
             29.210155    0.23218442062076
              9.286663    0.46794134155879
              3.163927    0.36231203217765
 s    3 1.00
             7.8682724   -0.11933240861517
             1.8812885   -0.16085421161283
             0.5442493     1.1434564825515
 s    1 1.00
             0.1687144                   1
 p    3 1.00
             7.8682724   0.068999095584993
             1.8812885    0.31642397975315
             0.5442493    0.74430825237435
 p    1 1.00
             0.1687144                   1

18 0
 s    6 1.00
             3047.5249  0.0018347001629433
             457.36951    0.01403730124668
             103.94869   0.068842606114048
             29.210155    0.23218442062076
              9.286663    0.46794134155879
              3.163927    0.36231203217765
 s    3 1.00
             7.8682724   -0.11933240861517
             1.8812885   -0.16085421161283
             0.5442493     1.1434564825515
 s    1 1.00
             0.1687144                   1
 p    3 1.00
             7.8682724   0.068999095584993
             1.8812885    0.31642397975315
             0.5442493    0.74430825237435
 p    1 1.00
             0.1687144                   1

19 0
 s    6 1.00
             3047.5249  0.0018347001629433
             457.36951    0.01403730124668
             103.94869   0.068842606114048
             29.210155    0.23218442062076
              9.286663    0.46794134155879
              3.163927    0.36231203217765
 s    3 1.00
             7.8682724   -0.11933240861517
             1.8812885   -0.16085421161283
             0.5442493     1.1434564825515
 s    1 1.00
             0.1687144                   1
 p    3 1.00
             7.8682724   0.068999095584993
             1.8812885    0.31642397975315
             0.5442493    0.74430825237435
 p    1 1.00
             0.1687144                   1

20 0
 s    6 1.00
             3047.5249  0.0018347001629433
             457.36951    0.01403730124668
             103.94869   0.068842606114048
             29.210155    0.23218442062076
              9.286663    0.46794134155879
              3.163927    0.36231203217765
 s    3 1.00
             7.8682724   -0.11933240861517
             1.8812885   -0.16085421161283
             0.5442493     1.1434564825515
 s    1 1.00
             0.1687144                   1
 p    3 1.00
             7.8682724   0.068999095584993
             1.8812885    0.31642397975315
             0.5442493    0.74430825237435
 p    1 1.00
             0.1687144                   1

21 0
 s    3 1.00
             18.731137    0.03349459952309
             2.8253937    0.23472694665786
             0.6401217    0.81375731841339
 s    1 1.00
             0.1612778                   1

22 0
 s    3 1.00
             18.731137    0.03349459952309
             2.8253937    0.23472694665786
             0.6401217    0.81375731841339
 s    1 1.00
             0.1612778                   1

23 0
 s    3 1.00
             18.731137    0.03349459952309
             2.8253937    0.23472694665786
             0.6401217    0.81375731841339
 s    1 1.00
             0.1612778                   1

24 0
 s    3 1.00
             18.731137    0.03349459952309
             2.8253937    0.23472694665786
             0.6401217    0.81375731841339
 s    1 1.00
             0.1612778                   1

[5d]
[7f]
[9g]

[MO]
 Sym= B1u
 Ene=               0
 Spin= Alpha
 Occup=    1.00000
   1                     0
   2                     0
   3                     0
   4                     0
   5                     0
   6     0.088062891340011
   7                     0
   8                     0
   9     0.050784521094982
  10                     0
  11                     0
  12                     0
  13                     0
  14                     0
  15     0.088062891340011
  16                     0
  17                     0
  18     0.050784521094982
  19                     0
  20                     0
  21                     0
  22                     0
  23                     0
  24                     0
  25                     0
  26                     0
  27                     0
  28      0.11242490567463
  29                     0
  30                     0
  31     0.062379988309533
  32                     0
  33                     0
  34                     0
  35                     0
  36                     0
  37      0.11242490567463
  38                     0
  39                     0
  40     0.062379988309533
  41                     0
  42                     0
  43                     0
  44                     0
  45                     0
  46      0.18603297827629
  47                     0
  48                     0
  49      0.10891807618311
  50                     0
  51                     0
  52                     0
  53                     0
  54                     0
  55      0.18603297827629
  56                     0
  57                     0
  58      0.10891807618311
  59                     0
  60                     0
  61                     0
  62                     0
  63                     0
  64                     0
  65                     0
  66                     0
  67                     0
  68      0.16263330425146
  69                     0
  70                     0
  71     0.091544990589175
  72                     0
  73                     0
  74                     0
  75                     0
  76                     0
  77      0.16263330425146
  78                     0
  79                     0
  80     0.091544990589175
  81                     0
  82                     0
  83                     0
  84                     0
  85                     0
  86      0.18603297827629
  87                     0
  88                     0
  89      0.10891807618311
  90                     0
  91                     0
  92                     0
  93                     0
  94                     0
  95      0.18603297827629
  96                     0
  97                     0
  98      0.10891807618311
  99                     0
 100                     0
 101                     0
 102                     0
 103                     0
 104                     0
 105                     0
 106                     0
 107                     0
 108      0.11242490567463
 109                     0
 110                     0
 111     0.062379988309533
 112                     0
 113                     0
 114                     0
 115                     0
 116                     0
 117      0.11242490567463
 118                     0
 119                     0
 120     0.062379988309533
 121                     0
 122                     0
 123                     0
 124                     0
 125                     0
 126     0.088062891340011
 127                     0
 128                     0
 129     0.050784521094982
 130                     0
 131                     0
 132                     0
 133                     0
 134                     0
 135     0.088062891340011
 136                     0
 137                     0
 138     0.050784521094982
 139                     0
 140                     0
 141                     0
 142                     0
 143                     0
 144                     0
 145                     0
 146                     0
 Sym= B2g
 Ene=               1
 Spin= Alpha
 Occup=    1.00000
   1                     0
   2                     0
   3                     0
   4                     0
   5                     0
   6      0.16663455724732
   7                     0
   8                     0
   9      0.10417213701999
  10                     0
  11                     0
  12                     0
  13                     0
  14                     0
  15      0.16663455724732
  16                     0
  17                     0
  18      0.10417213701999
  19                     0
  20                     0
  21                     0
  22                     0
  23                     0
  24                     0
  25                     0
  26                     0
  27                     0
  28      0.15769645684127
  29                     0
  30                     0
  31     0.099423818686723
  32                     0
  33                     0
  34                     0
  35                     0
  36                     0
  37      0.15769645684127
  38                     0
  39                     0
  40     0.099423818686723
  41                     0
  42                     0
  43                     0
  44                     0
  45                     0
  46      0.13472989180791
  47                     0
  48                     0
  49     0.084970667425134
  50                     0
  51                     0
  52                     0
  53                     0
  54                     0
  55      0.13472989180791
  56                     0
  57                     0
  58     0.084970667425134
  59                     0
  60                     0
  61                     0
  62                     0
  63                     0
  64                     0
  65                     0
  66                     0
  67                     0
  68                     0
  69                     0
  70                     0
  71                     0
  72                     0
  73                     0
  74                     0
  75                     0
  76                     0
  77                     0
  78                     0
  79                     0
  80                     0
  81                     0
  82                     0
  83                     0
  84                     0
  85                     0
  86     -0.13472989180791
  87                     0
  88                     0
  89    -0.084970667425134
  90                     0
  91                     0
  92                     0
  93                     0
  94                     0
  95     -0.13472989180791
  96                     0
  97                     0
  98    -0.084970667425134
  99                     0
 100                     0
 101                     0
 102                     0
 103                     0
 104                     0
 105                     0
 106                     0
 107                     0
 108     -0.15769645684127
 109                     0
 110                     0
 111    -0.099423818686723
 112                     0
 113                     0
 114                     0
 115                     0
 116                     0
 117     -0.15769645684127
 118                     0
 119                     0
 120    -0.099423818686723
 121                     0
 122                     0
 123                     0
 124                     0
 125                     0
 126     -0.16663455724732
 127                     0
 128                     0
 129     -0.10417213701999
 130                     0
 131                     0
 132                     0
 133                     0
 134                     0
 135     -0.16663455724732
 136                     0
 137                     0
 138     -0.10417213701999
 139                     0
 140                     0
 141                     0
 142                     0
 143                     0
 144                     0
 145                     0
 146                     0
 Sym= B1u
 Ene=               2
 Spin= Alpha
 Occup=    1.00000
   1                     0
   2                     0
   3                     0
   4                     0
   5                     0
   6      0.21004271550726
   7                     0
   8                     0
   9      0.14807524194224
  10                     0
  11                     0
  12                     0
  13                     0
  14                     0
  15      0.21004271550726
  16                     0
  17                     0
  18      0.14807524194224
  19                     0
  20                     0
  21                     0
  22                     0
  23                     0
  24                     0
  25                     0
  26                     0
  27                     0
  28      0.10528649970515
  29                     0
  30                     0
  31     0.078425161259509
  32                     0
  33                     0
  34                     0
  35                     0
  36                     0
  37      0.10528649970515
  38                     0
  39                     0
  40     0.078425161259509
  41                     0
  42                     0
  43                     0
  44                     0
  45                     0
  46     -0.10227632940951
  47                     0
  48                     0
  49    -0.073530261413838
  50                     0
  51                     0
  52                     0
  53                     0
  54                     0
  55     -0.10227632940951
  56                     0
  57                     0
  58    -0.073530261413838
  59                     0
  60                     0
  61                     0
  62                     0
  63                     0
  64                     0
  65                     0
  66                     0
  67                     0
  68     -0.14298182269876
  69                     0
  70                     0
  71     -0.10437197333409
  72                     0
  73                     0
  74                     0
  75                     0
  76                     0
  77     -0.14298182269876
  78                     0
  79                     0
  80     -0.10437197333409
  81                     0
  82                     0
  83                     0
  84                     0
  85                     0
  86     -0.10227632940951
  87                     0
  88                     0
  89    -0.073530261413838
  90                     0
  91                     0
  92                     0
  93                     0
  94                     0
  95     -0.10227632940951
  96                     0
  97                     0
  98    -0.073530261413838
  99                     0
 100                     0
 101                     0
 102                     0
 103                     0
 104                     0
 105                     0
 106                     0
 107                     0
 108      0.10528649970515
 109                     0
 110                     0
 111     0.078425161259509
 112                     0
 113                     0
 114                     0
 115                     0
 116                     0
 117      0.10528649970515
 118                     0
 119                     0
 120     0.078425161259509
 121                     0
 122                     0
 123                     0
 124                     0
 125                     0
 126      0.21004271550726
 127                     0
 128                     0
 129      0.14807524194224
 130                     0
 131                     0
 132                     0
 133                     0
 134                     0
 135      0.21004271550726
 136                     0
 137                     0
 138      0.14807524194224
 139                     0
 140                     0
 141                     0
 142                     0
 143                     0
 144                     0
 145                     0
 146                     0
 Sym= B3g
 Ene=               3
 Spin= Alpha
 Occup=    1.00000
   1                     0
   2                     0
   3                     0
   4                     0
   5                     0
   6     0.076428832859202
   7                     0
   8                     0
   9     0.053564375789299
  10                     0
  11                     0
  12                     0
  13                     0
  14                     0
  15    -0.076428832859202
  16                     0
  17                     0
  18    -0.053564375789299
  19                     0
  20                     0
  21                     0
  22                     0
  23                     0
  24                     0
  25                     0
  26                     0
  27                     0
  28      0.15380859012861
  29                     0
  30                     0
  31      0.11225316242503
  32                     0
  33                     0
  34                     0
  35                     0
  36                     0
  37     -0.15380859012861
  38                     0
  39                     0
  40     -0.11225316242503
  41                     0
  42                     0
  43                     0
  44                     0
  45                     0
  46      0.15533361106941
  47                     0
  48                     0
  49      0.10364670868817
  50                     0
  51                     0
  52                     0
  53                     0
  54                     0
  55     -0.15533361106941
  56                     0
  57                     0
  58     -0.10364670868817
  59                     0
  60                     0
  61                     0
  62                     0
  63                     0
  64                     0
  65                     0
  66                     0
  67                     0
  68      0.22162521557856
  69                     0
  70                     0
  71      0.16512209598136
  72                     0
  73                     0
  74                     0
  75                     0
  76                     0
  77     -0.22162521557856
  78                     0
  79                     0
  80     -0.16512209598136
  81                     0
  82                     0
  83                     0
  84                     0
  85                     0
  86      0.15533361106941
  87                     0
  88                     0
  89      0.10364670868817
  90                     0
  91                     0
  92                     0
  93                     0
  94                     0
  95     -0.15533361106941
  96                     0
  97                     0
  98     -0.10364670868817
  99                     0
 100                     0
 101                     0
 102                     0
 103                     0
 104                     0
 105                     0
 106                     0
 107                     0
 108      0.15380859012861
 109                     0
 110                     0
 111      0.11225316242503
 112                     0
 113                     0
 114                     0
 115                     0
 116                     0
 117     -0.15380859012861
 118                     0
 119                     0
 120     -0.11225316242503
 121                     0
 122                     0
 123                     0
 124                     0
 125                     0
 126     0.076428832859202
 127                     0
 128                     0
 129     0.053564375789299
 130                     0
 131                     0
 132                     0
 133                     0
 134                     0
 135    -0.076428832859202
 136                     0
 137                     0
 138    -0.053564375789299
 139                     0
 140                     0
 141                     0
 142                     0
 143                     0
 144                     0
 145                     0
 146                     0
 Sym= Au
 Ene=               4
 Spin= Alpha
 Occup=    1.00000
   1                     0
   2                     0
   3                     0
   4                     0
   5                     0
   6      0.13605114279139
   7                     0
   8                     0
   9      0.11108896185336
  10                     0
  11                     0
  12                     0
  13                     0
  14                     0
  15     -0.13605114279139
  16                     0
  17                     0
  18     -0.11108896185336
  19                     0
  20                     0
  21                     0
  22                     0