 &FCI NORB=  14,NELEC=14,MS2=0,
  ORBSYM=1,1,1,1,1,1,1,1,1,1,1,1,1,1,
  ISYM=1,
 &END
 0.6303706737122979    1    1    1    1
 -0.0007335660410622453    1    1    2    1
 0.1773693857220587    1    1    2    2
 0.0005430191715930571    1    1    3    1
 -4.533891552248006e-06    1    1    3    2
 0.1020903777020037    1    1    3    3
 0.00167605901449098    1    1    4    1
 -0.0001425850354656062    1    1    4    2
 -0.0001160426628824379    1    1    4    3
 0.2023846470280207    1    1    4    4
 -0.000886391084834612    1    1    5    1
 -3.634113950846589e-05    1    1    5    2
 0.0004018836121346047    1    1    5    3
 0.0001840529833966595    1    1    5    4
 0.1372427180137366    1    1    5    5
 -0.004562680100838464    1    1    6    1
 0.001422036448780555    1    1    6    2
 -6.067711514352319e-05    1    1    6    3
 -0.002516836689190588    1    1    6    4
 0.0002036683348219764    1    1    6    5
 0.3198287721143994    1    1    6    6
 -0.00484662100606805    1    1    7    1
 -0.0002418946274240564    1    1    7    2
 -0.00017393288890133    1    1    7    3
 0.0005614064271762015    1    1    7    4
 0.0002361325856826413    1    1    7    5
 -0.000484907388863106    1    1    7    6
 0.3230225731343036    1    1    7    7
 -0.001268286581966813    1    1    8    1
 -0.0005105793130633438    1    1    8    2
 -3.685715558702638e-05    1    1    8    3
 0.001126661243447468    1    1    8    4
 9.960855041710722e-05    1    1    8    5
 0.00213982555371488    1    1    8    6
 0.0004276958715003841    1    1    8    7
 0.2008032988257108    1    1    8    8
 -0.001621641691683987    1    1    9    1
 5.743510092062654e-05    1    1    9    2
 -0.0001633563153188465    1    1    9    3
 -0.001280043838304821    1    1    9    4
 -0.00176219486681462    1    1    9    5
 -0.0003549910811831093    1    1    9    6
 0.002586481404941836    1    1    9    7
 -0.0001672637758224634    1    1    9    8
 0.2051487374378601    1    1    9    9
 2.971416967039618e-05    1    1   10    1
 1.22963970534406e-05    1    1   10    2
 -0.000195173841475288    1    1   10    3
 0.000612132313142148    1    1   10    4
 0.0001986748524689495    1    1   10    5
 -0.0001022150714345645    1    1   10    6
 3.860383457023088e-05    1    1   10    7
 5.693471833963215e-05    1    1   10    8
 -0.0005083314633078591    1    1   10    9
 0.1212838379492533    1    1   10   10
 -0.0007798069092420016    1    1   11    1
 2.082322981346841e-05    1    1   11    2
 -0.0002374052765872996    1    1   11    3
 0.0007366959334608217    1    1   11    4
 0.0006900197742958724    1    1   11    5
 0.001542689504869998    1    1   11    6
 0.001692170351029808    1    1   11    7
 0.0002105864378331384    1    1   11    8
 -0.0007918071334196105    1    1   11    9
 0.001578531418875866    1    1   11   10
 0.1787919693821267    1    1   11   11
 9.96898733609308e-06    1    1   12    1
 -2.228374237560394e-05    1    1   12    2
 0.0001477895278793703    1    1   12    3
 -3.054548967600812e-05    1    1   12    4
 -0.0005960899861800579    1    1   12    5
 0.000132442594428385    1    1   12    6
 -0.0004122936475166629    1    1   12    7
 3.847076566309881e-05    1    1   12    8
 2.152139924295476e-05    1    1   12    9
 0.0004035387619211512    1    1   12   10
 8.31283913456925e-06    1    1   12   11
 0.1063721804772622    1    1   12   12
 0.001008294128587361    1    1   13    1
 0.0007942705925349722    1    1   13    2
 -2.11163178648576e-05    1    1   13    3
 -0.0002033464098387008    1    1   13    4
 2.550699613394108e-06    1    1   13    5
 0.0004902334132797952    1    1   13    6
 -0.0001975018791705793    1    1   13    7
 -0.001290776634605353    1    1   13    8
 -3.715861089747713e-05    1    1   13    9
 -2.405714657472362e-05    1    1   13   10
 -8.317228197245044e-05    1    1   13   11
 -2.63044839905493e-05    1    1   13   12
 0.2034922336724387    1    1   13   13
 -0.003756567869073798    1    1   14    1
 0.001754181947253278    1    1   14    2
 -0.0001105157625399267    1    1   14    3
 -0.0004661930152912092    1    1   14    4
 -1.226376956760191e-05    1    1   14    5
 -0.0008526084253749665    1    1   14    6
 -0.0009708663039329673    1    1   14    7
 -0.000646649635143087    1    1   14    8
 0.0003748676919227787    1    1   14    9
 -0.0001091495759827447    1    1   14   10
 -0.0001809128728050136    1    1   14   11
 8.465455052396347e-05    1    1   14   12
 -0.002862812157847155    1    1   14   13
 0.3174656358566661    1    1   14   14
 -0.0007335660410622459    2    1    1    1
 1.612836590814496e-05    2    1    2    1
 -0.0005355812039415856    2    1    2    2
 -1.187548440840151e-06    2    1    3    1
 -2.831614682188691e-07    2    1    3    2
 -8.172326663934793e-06    2    1    3    3
 -1.553587500813168e-05    2    1    4    1
 -5.643571532407034e-06    2    1    4    2
 -4.058350583276153e-07    2    1    4    3
 0.0001975877674899446    2    1    4    4
 9.315667397678711e-07    2    1    5    1
 2.068014279997285e-07    2    1    5    2
 -2.813948061607138e-07    2    1    5    3
 -5.370360497405472e-07    2    1    5    4
 -8.176048517534637e-05    2    1    5    5
 5.930998346737291e-05    2    1    6    1
 5.940990080152691e-07    2    1    6    2
 1.515760123274078e-07    2    1    6    3
 -1.449913037923864e-05    2    1    6    4
 -1.179566439394202e-06    2    1    6    5
 0.0004902333955495741    2    1    6    6
 -3.10940618591942e-05    2    1    7    1
 -2.232598154353424e-06    2    1    7    2
 4.309950723550557e-07    2    1    7    3
 6.27739144007502e-07    2    1    7    4
 8.506790381144866e-07    2    1    7    5
 -5.146368036687957e-06    2    1    7    6
 -0.000450076299861412    2    1    7    7
 -1.548683082049071e-06    2    1    8    1
 -6.831786510618649e-05    2    1    8    2
 -1.719463869929893e-07    2    1    8    3
 4.246582120592225e-06    2    1    8    4
 1.039900527930695e-07    2    1    8    5
 -7.481850574292192e-05    2    1    8    6
 1.877960780143976e-06    2    1    8    7
 0.0005511900797035325    2    1    8    8
 -6.461587298838537e-07    2    1    9    1
 -6.741315384030974e-07    2    1    9    2
 5.319320892187541e-07    2    1    9    3
 5.350044404740432e-07    2    1    9    4
 2.027103881511624e-06    2    1    9    5
 3.183670492616709e-06    2    1    9    6
 -8.977911152609734e-06    2    1    9    7
 -2.038354434515416e-07    2    1    9    8
 -0.0001633562300567486    2    1    9    9
 -2.217510135765265e-07    2    1   10    1
 -2.900978444190569e-07    2    1   10    2
 -8.770825697251082e-07    2    1   10    3
 -1.535762561099226e-06    2    1   10    4
 -1.699872937625065e-07    2    1   10    5
 -1.689341435093243e-06    2    1   10    6
 3.526996756166817e-07    2    1   10    7
 -7.098130415814769e-08    2    1   10    8
 -2.112177724069454e-07    2    1   10    9
 1.298247098846195e-05    2    1   10   10
 1.510384198141144e-06    2    1   11    1
 5.353040494332462e-07    2    1   11    2
 8.009314343965459e-07    2    1   11    3
 -8.30114779195569e-06    2    1   11    4
 -9.378091122532085e-07    2    1   11    5
 -3.807750013389704e-06    2    1   11    6
 -2.042543712288332e-06    2    1   11    7
 -1.048306027710371e-07    2    1   11    8
 3.250370770786122e-07    2    1   11    9
 -1.650456382330597e-06    2    1   11   10
 -8.312807682787674e-06    2    1   11   11
 -2.103513832032755e-07    2    1   12    1
 3.011702909107215e-07    2    1   12    2
 -1.346688347250346e-07    2    1   12    3
 -2.66475095994802e-07    2    1   12    4
 1.607606630665176e-06    2    1   12    5
 -8.098301472562324e-08    2    1   12    6
 1.037772562680112e-06    2    1   12    7
 3.44856932120311e-07    2    1   12    8
 4.653836342013924e-07    2    1   12    9
 -2.64415595325706e-07    2    1   12   10
 3.6643078740452e-07    2    1   12   11
 -3.335201240515443e-05    2    1   12   12
 4.252385264844242e-06    2    1   13    1
 3.333103300129126e-05    2    1   13    2
 4.248083393517038e-08    2    1   13    3
 -1.563127267030478e-06    2    1   13    4
 -1.805114946240501e-07    2    1   13    5
 6.647135209636867e-06    2    1   13    6
 -2.952468089447082e-06    2    1   13    7
 -1.235813681462497e-05    2    1   13    8
 1.495744214416514e-07    2    1   13    9
 1.063753430102419e-07    2    1   13   10
 2.056997080080502e-07    2    1   13   11
 -1.858982712310145e-07    2    1   13   12
 0.0001569222734164333    2    1   13   13
 5.044039693030995e-05    2    1   14    1
 4.424968013736636e-06    2    1   14    2
 2.42663789937038e-07    2    1   14    3
 -9.528856674723098e-07    2    1   14    4
 -6.884688197655393e-08    2    1   14    5
 1.299821648753098e-05    2    1   14    6
 -7.369625469717345e-06    2    1   14    7
 -5.516844449476454e-06    2    1   14    8
 -2.034180948366923e-06    2    1   14    9
 2.252641862073571e-07    2    1   14   10
 3.613639857913412e-07    2    1   14   11
 -1.849486547300402e-07    2    1   14   12
 9.15539042879255e-05    2    1   14   13
 0.0001839161826294349    2    1   14   14
 0.1773693857220587    2    2    1    1
 -0.0005355812039415864    2    2    2    1
 0.6166129582491874    2    2    2    2
 2.162882494928597e-05    2    2    3    1
 6.746946308371835e-05    2    2    3    2
 0.07137171213350975    2    2    3    3
 -0.0006585486358068971    2    2    4    1
 0.0009069871569967821    2    2    4    2
 -6.594460117379246e-05    2    2    4    3
 0.1377014795688784    2    2    4    4
 -0.0001137430962515361    2    2    5    1
 -0.0001846403289180164    2    2    5    2
 0.000172314325746081    2    2    5    3
 5.135109909724454e-06    2    2    5    4
 0.08036303395368327    2    2    5    5
 0.0008640524111035008    2    2    6    1
 0.003078976241269147    2    2    6    2
 4.229861641759206e-06    2    2    6    3
 -0.001754046623151822    2    2    6    4
 -5.211433057719104e-05    2    2    6    5
 0.2034922336675613    2    2    6    6
 -0.001614713711027002    2    2    7    1
 -0.0002648715082113751    2    2    7    2
 -2.366810741448474e-05    2    2    7    3
 0.0001537307842454476    2    2    7    4
 0.0001455003728676144    2    2    7    5
 -0.0004957498055190962    2    2    7    6
 0.1214540640862434    2    2    7    7
 -0.001381873600392845    2    2    8    1
 0.006612602127770705    2    2    8    2
 -1.997703921015603e-05    2    2    8    3
 0.0003815871058299016    2    2    8    4
 -9.117059006780077e-05    2    2    8    5
 0.002346399995276379    2    2    8    6
 -7.182004821874138e-05    2    2    8    7
 0.3251960258195978    2    2    8    8
 -0.0002699123733625206    2    2    9    1
 0.0006409560562637203    2    2    9    2
 -8.172352111682162e-06    2    2    9    3
 -0.0004025375108314749    2    2    9    4
 -0.0003740373483569619    2    2    9    5
 0.0002091994251286087    2    2    9    6
 0.0001451005269255348    2    2    9    7
 0.0002021415979894831    2    2    9    8
 0.1020903776900523    2    2    9    9
 -6.810246980506104e-06    2    2   10    1
 0.0001525696405420877    2    2   10    2
 -0.0001821951698414499    2    2   10    3
 4.503428631669739e-05    2    2   10    4
 5.975248173798438e-05    2    2   10    5
 -0.0001683861175131303    2    2   10    6
 3.102392666878261e-05    2    2   10    7
 -5.708634939624744e-05    2    2   10    8
 -0.0002391062329406966    2    2   10    9
 0.08458307189428982    2    2   10   10
 -5.642106118593787e-05    2    2   11    1
 -0.000198276957529147    2    2   11    2
 1.012164347736378e-06    2    2   11    3
 -0.0005581741018603537    2    2   11    4
 0.0001989867386530648    2    2   11    5
 5.693745704636067e-05    2    2   11    6
 0.0004076564169033497    2    2   11    7
 -0.000462242962446983    2    2   11    8
 -0.000154788280540692    2    2   11    9
 0.0003320420046698873    2    2   11   10
 0.1063721804563667    2    2   11   11
 -6.24456119793458e-06    2    2   12    1
 -0.0002885039461876141    2    2   12    2
 4.30889972846137e-05    2    2   12    3
 -3.890116732403279e-05    2    2   12    4
 -0.0001077913843085688    2    2   12    5
 9.759531766792356e-06    2    2   12    6
 -4.411964537623351e-05    2    2   12    7
 -7.66320000121306e-05    2    2   12    8
 5.123712400503187e-05    2    2   12    9
 0.0001640755511482033    2    2   12   10
 3.335202534996129e-05    2    2   12   11
 0.07002149003065783    2    2   12   12
 0.001785281620632922    2    2   13    1
 -0.003314093029956087    2    2   13    2
 -6.313139168705867e-05    2    2   13    3
 -0.0002870392217779506    2    2   13    4
 5.34746971620055e-05    2    2   13    5
 0.0001569222497975497    2    2   13    6
 0.0001253620631892459    2    2   13    7
 7.777849512438878e-05    2    2   13    8
 -3.893006844070648e-05    2    2   13    9
 -6.707034143477739e-05    2    2   13   10
 -0.0001160512401816344    2    2   13   11
 6.29245380960708e-05    2    2   13   12
 0.3144843034833636    2    2   13   13
 0.0008635372335761646    2    2   14    1
 0.001501110948388451    2    2   14    2
 1.221510389707054e-05    2    2   14    3
 -0.0001352021868515779    2    2   14    4
 -8.158643894645582e-07    2    2   14    5
 0.001174421921812267    2    2   14    6
 -0.0006547275512424641    2    2   14    7
 -0.0004133671271648676    2    2   14    8
 -0.0001170128117150633    2    2   14    9
 1.27159006606901e-05    2    2   14   10
 3.48169367250941e-05    2    2   14   11
 6.362440173665926e-06    2    2   14   12
 -0.002848853304028304    2    2   14   13
 0.201852729570915    2    2   14   14
 0.0005430191715930572    3    1    1    1
 -1.187548440840147e-06    3    1    2    1
 2.1628824949286e-05    3    1    2    2
 3.307031722370934e-06    3    1    3    1
 1.535707121240769e-07    3    1    3    2
 0.0006409560748197042    3    1    3    3
 4.255549778198528e-06    3    1    4    1
 -8.015930223299234e-08    3    1    4    2
 -2.159246014504756e-06    3    1    4    3
 4.326186080001173e-05    3    1    4    4
 -1.859006477646979e-06    3    1    5    1
 6.639731541971736e-09    3    1    5    2
 4.787747916494273e-06    3    1    5    3
 1.90199405669076e-07    3    1    5    4
 2.886778673779119e-05    3    1    5    5
 -2.060563157196483e-05    3    1    6    1
 8.55396950956418e-07    3    1    6    2
 3.9711120177476e-07    3    1    6    3
 -3.443116465282122e-06    3    1    6    4
 1.680111075103029e-07    3    1    6    5
 0.000132442559630574    3    1    6    6
 -3.135147560027897e-05    3    1    7    1
 9.314334143882809e-09    3    1    7    2
 9.527121933812772e-07    3    1    7    3
 4.37117728588267e-07    3    1    7    4
 5.326185474770132e-07    3    1    7    5
 2.026561267169138e-06    3    1    7    6
 6.951033293360303e-05    3    1    7    7
 -3.156357322421946e-06    3    1    8    1
 2.120129148490888e-07    3    1    8    2
 -5.037890441420754e-07    3    1    8    3
 3.971828473028261e-07    3    1    8    4
 3.384637909520949e-08    3    1    8    5
 4.544727533617298e-06    3    1    8    6
 4.467884402491341e-07    3    1    8    7
 4.217579440918237e-05    3    1    8    8
 -5.795571946342302e-06    3    1    9    1
 9.385824083281414e-08    3    1    9    2
 -6.74131128263851e-07    3    1    9    3
 -1.860338471250757e-07    3    1    9    4
 -1.082697906505471e-06    3    1    9    5
 2.265425516354975e-07    3    1    9    6
 5.400138158086778e-06    3    1    9    7
 -4.859017807643185e-08    3    1    9    8
 5.743510421067231e-05    3    1    9    9
 5.930936842003988e-11    3    1   10    1
 6.551144945767564e-08    3    1   10    2
 -3.511230872726902e-05    3    1   10    3
 4.722965697885877e-07    3    1   10    4
 3.359535198196581e-07    3    1   10    5
 -8.574401006853315e-07    3    1   10    6
 -1.954674162452753e-09    3    1   10    7
 -8.422650650197156e-08    3    1   10    8
 1.206507483386234e-06    3    1   10    9
 0.0001766103178615598    3    1   10   10
 -1.574470810665585e-06    3    1   11    1
 1.783629889476682e-08    3    1   11    2
 -1.014353536542607e-05    3    1   11    3
 -1.908556736419574e-06    3    1   11    4
 -7.200546106188783e-07    3    1   11    5
 1.314883375229867e-06    3    1   11    6
 1.116501441952042e-06    3    1   11    7
 -6.784627992159761e-08    3    1   11    8
 -1.803324999429507e-06    3    1   11    9
 5.670922580945634e-06    3    1   11   10
 8.317228772775458e-05    3    1   11   11
 -1.914410473674643e-07    3    1   12    1
 -9.925509528542331e-08    3    1   12    2
 -2.306555764063109e-05    3    1   12    3
 3.382332741810381e-07    3    1   12    4
 -2.063199009988034e-06    3    1   12    5
 3.264758816188802e-07    3    1   12    6
 -4.993504959097523e-07    3    1   12    7
 1.149735161753777e-07    3    1   12    8
 2.005803958482667e-06    3    1   12    9
 2.852121335728406e-06    3    1   12   10
 2.056996645725692e-07    3    1   12   11
 0.0001160512572034819    3    1   12   12
 3.325847645023242e-06    3    1   13    1
 4.49683503314688e-07    3    1   13    2
 -8.570305743631295e-07    3    1   13    3
 -4.789127628346158e-08    3    1   13    4
 -2.344960290878285e-08    3    1   13    5
 -8.098309766270427e-08    3    1   13    6
 7.379688564961253e-08    3    1   13    7
 -5.192754021950962e-07    3    1   13    8
 -1.983671503625709e-08    3    1   13    9
 1.029045432060556e-07    3    1   13   10
 -5.969010336333596e-08    3    1   13   11
 7.486078898961347e-08    3    1   13   12
 9.759509516753613e-06    3    1   13   13
 -2.667724888599049e-05    3    1   14    1
 1.272250176650025e-06    3    1   14    2
 -7.066353205978261e-07    3    1   14    3
 -4.276778111420155e-07    3    1   14    4
 8.21220013922805e-08    3    1   14    5
 9.572405088891003e-07    3    1   14    6
 3.513331462336016e-07    3    1   14    7
 -3.221774332716715e-07    3    1   14    8
 5.660117911693545e-08    3    1   14    9
 5.432541531697365e-08    3    1   14   10
 5.673311954024437e-08    3    1   14   11
 1.427122601069648e-07    3    1   14   12
 -2.928548871005595e-06    3    1   14   13
 5.455948788103339e-05    3    1   14   14
 -4.533891552248025e-06    3    2    1    1
 -2.831614682188715e-07    3    2    2    1
 6.746946308371835e-05    3    2    2    2
 1.535707121240757e-07    3    2    3    1
 9.389976743681434e-08    3    2    3    2
 6.746946585708605e-05    3    2    3    3
 -4.960452891972878e-08    3    2    4    1
 2.606899065882575e-07    3    2    4    2
 -2.606899338014673e-07    3    2    4    3
 -3.483178114277668e-05    3    2    4    4
 -6.200610193351252e-08    3    2    5    1
 -5.971143364819028e-08    3    2    5    2
 -1.022560378910145e-08    3    2    5    3
 -8.073142291987506e-09    3    2    5    4
 1.5526075010981e-05    3    2    5    5
 4.5191440348096e-07    3    2    6    1
 1.477484070538346e-06    3    2    6    2
 1.879606360912159e-08    3    2    6    3
 3.128564919230592e-07    3    2    6    4
 -1.94549382507828e-08    3    2    6    5
 -2.630448384102321e-05    3    2    6    6
 -1.381901213441621e-09    3    2    7    1
 -9.650904150554918e-08    3    2    7    2
 9.650903061865449e-08    3    2    7    3
 -6.485112198444667e-09    3    2    7    4
 -7.284218358718217e-08    3    2    7    5
 -1.436960720622053e-07    3    2    7    6
 -1.052453640458837e-06    3    2    7    7
 -1.526273311850489e-07    3    2    8    1
 6.363441346343681e-06    3    2    8    2
 -4.183278390513736e-08    3    2    8    3
 2.884953993727391e-07    3    2    8    4
 -1.031101081684349e-08    3    2    8    5
 -4.014826889888202e-07    3    2    8    6
 4.565844332939826e-08    3    2    8    7
 -4.606792667755787e-05    3    2    8    8
 1.994192584147116e-07    3    2    9    1
 1.535707029964443e-07    3    2    9    2
 -2.831614361190379e-07    3    2    9    3
 4.960419008825827e-08    3    2    9    4
 -3.371765077205503e-08    3    2    9    5
 3.328255076506364e-09    3    2    9    6
 1.381896383160998e-09    3    2    9    7
 9.649908419806151e-09    3    2    9    8
 -4.533891616542733e-06    3    2    9    9
 -9.649914658788254e-09    3    2   10    1
 4.183278267161353e-08    3    2   10    2
 -6.363441443217048e-06    3    2   10    3
 2.884954024871726e-07    3    2   10    4
 1.347053692502922e-07    3    2   10    5
 8.678760269183507e-08    3    2   10    6
 4.565844621154152e-08    3    2   10    7
 5.378653328169249e-08    3    2   10    8
 1.526272813382865e-07    3    2   10    9
 -4.606792622089067e-05    3    2   10   10
 -3.328264543257776e-09    3    2   11    1
 -1.879603412462247e-08    3    2   11    2
 -1.477484344748993e-06    3    2   11    3
 3.128564266178499e-07    3    2   11    4
 -3.357930302593759e-08    3    2   11    5
 1.548271772910647e-07    3    2   11    6
 -1.436962065656211e-07    3    2   11    7
 8.678763545341288e-08    3    2   11    8
 -4.519145374638904e-07    3    2   11    9
 -4.01482546870954e-07    3    2   11   10
 -2.630448360896896e-05    3    2   11   11
 9.756841020292666e-09    3    2   12    1
 -1.182240205241431e-07    3    2   12    2
 1.614986715640251e-06    3    2   12    3
 3.436976264894378e-08    3    2   12    4
 -2.626046445743571e-06    3    2   12    5
 7.486077542349775e-08    3    2   12    6
 -1.669095752776872e-07    3    2   12    7
 2.827242615291182e-08    3    2   12    8
 4.115065295081805e-07    3    2   12    9
 1.156965707957459e-08    3    2   12   10
 1.858982473042115e-07    3    2   12   11
 6.292453986002231e-05    3    2   12   12
 4.11506630442362e-07    3    2   13    1
 1.614986892760902e-06    3    2   13    2
 -1.182240248556432e-07    3    2   13    3
 -3.436971853039196e-08    3    2   13    4
 2.876276108726039e-08    3    2   13    5
 -1.858982840900391e-07    3    2   13    6
 1.669095809120703e-07    3    2   13    7
 -1.156979925706005e-08    3    2   13    8
 9.756841181990725e-09    3    2   13    9
 -2.8272429222992e-08    3    2   13   10
 -7.486078070876958e-08    3    2   13   11
 4.793127612858506e-08    3    2   13   12
 6.292453911224676e-05    3    2   13   13
 -3.371767165234299e-08    3    2   14    1
 -1.022559481600381e-08    3    2   14    2
 -5.971143679017977e-08    3    2   14    3
 8.073168557859508e-09    3    2   14    4
 1.72086353369379e-08    3    2   14    5
 3.35791603635154e-08    3    2   14    6
 7.284219870112381e-08    3    2   14    7
 -1.347052837471929e-07    3    2   14    8
 -6.200610759586925e-08    3    2   14    9
 1.031102087806012e-08    3    2   14   10
 1.945492543755402e-08    3    2   14   11
 2.876276006823735e-08    3    2   14   12
 -2.626046514604865e-06    3    2   14   13
 1.552607457833898e-05    3    2   14   14
 0.1020903777020037    3    3    1    1
 -8.17232666393594e-06    3    3    2    1
 0.0713717121335098    3    3    2    2
 0.0006409560748197053    3    3    3    1
 6.746946585708624e-05    3    3    3    2
 0.6166129582648099    3    3    3    3
 0.0004025379150842848    3    3    4    1
 6.594461686059977e-05    3    3    4    2
 -0.0009069872690345163    3    3    4    3
 0.1377014795659913    3    3    4    4
 -0.000117012774791255    3    3    5    1
 1.221510246520364e-05    3    3    5    2
 0.001501110686919134    3    3    5    3
 0.0001352022080697516    3    3    5    4
 0.2018527295410026    3    3    5    5
 0.0001547882971615125    3    3    6    1
 -1.012079077989866e-06    3    3    6    2
 0.0001982770910846765    3    3    6    3
 -0.0005581742286521203    3    3    6    4
 -3.481695063688455e-05    3    3    6    5
 0.106372180468169    3    3    6    6
 -0.0001451004725499721    3    3    7    1
 2.366811543429864e-05    3    3    7    2
 0.0002648714226562833    3    3    7    3
 0.0001537307627382984    3    3    7    4
 0.0006547276086615375    3    3    7    5
 0.0004076564984549742    3    3    7    6
 0.1214540640681031    3    3    7    7
 0.0002391062108658635    3    3    8    1
 0.0001821951437058388    3    3    8    2
 -0.000152569626546972    3    3    8    3
 4.503428348930268e-05    3    3    8    4
 -1.271588388892693e-05    3    3    8    5
 0.0003320419269055457    3    3    8    6
 3.102391723720667e-05    3    3    8    7
 0.08458307189396091    3    3    8    8
 -0.0002699125008465558    3    3    9    1
 2.162883245152248e-05    3    3    9    2
 -0.0005355808846355138    3    3    9    3
 0.0006585481857117363    3    3    9    4
 0.0008635372425291883    3    3    9    5
 5.642101602851626e-05    3    3    9    6
 0.001614713547902824    3    3    9    7
 6.81023005568954e-06    3    3    9    8
 0.1773693857310714    3    3    9    9
 -0.0002021415575733397    3    3   10    1
 1.997702709566496e-05    3    3   10    2
 -0.006612601535133919    3    3   10    3
 0.0003815870699675565    3    3   10    4
 0.0004133669847053029    3    3   10    5
 -0.0004622426324105348    3    3   10    6
 -7.18200585763133e-05    3    3   10    7
 -5.708625980662766e-05    3    3   10    8
 0.001381873790553761    3    3   10    9
 0.3251960258328961    3    3   10   10
 -0.0002091993579361427    3    3   11    1
 -4.229890714225384e-06    3    3   11    2
 -0.003078977241239564    3    3   11    3
 -0.00175404691467973    3    3   11    4
 -0.001174421926575961    3    3   11    5
 5.693646034412649e-05    3    3   11    6
 -0.0004957493843209652    3    3   11    7
 -0.0001683859179154571    3    3   11    8
 -0.0008640523222998432    3    3   11    9
 0.002346399560050208    3    3   11   10
 0.2034922336829651    3    3   11   11
 -3.893006850278458e-05    3    3   12    1
 -6.313139961438001e-05    3    3   12    2
 -0.003314093350870979    3    3   12    3
 0.0002870392928439047    3    3   12    4
 -0.002848853170190023    3    3   12    5
 0.0001160512300748634    3    3   12    6
 -0.0001253620409548818    3    3   12    7
 6.707033237369872e-05    3    3   12    8
 0.001785281406218526    3    3   12    9
 -7.777848086205479e-05    3    3   12   10
 -0.0001569222830095684    3    3   12   11
 0.314484303497938    3    3   12   12
 5.123707405691466e-05    3    3   13    1
 4.308899952855036e-05    3    3   13    2
 -0.0002885039659418162    3    3   13    3
 3.890113196419346e-05    3    3   13    4
 6.36243382726379e-06    3    3   13    5
 -3.335200763587365e-05    3    3   13    6
 4.411963764099894e-05    3    3   13    7
 -0.0001640755272420086    3    3   13    8
 -6.244559704536451e-06    3    3   13    9
 7.663200776464996e-05    3    3   13   10
 -9.759524952267121e-06    3    3   13   11
 6.29245411125294e-05    3    3   13   12
 0.07002149003021373    3    3   13   13
 -0.0003740373420461239    3    3   14    1
 0.0001723143194442187    3    3   14    2
 -0.0001846403337498971    3    3   14    3
 -5.135136968008357e-06    3    3   14    4
 -8.158854387105632e-07    3    3   14    5
 -0.0001989866514957547    3    3   14    6
 -0.0001455004037283992    3    3   14    7
 -5.975248380409178e-05    3    3   14    8
 -0.0001137430637710177    3    3   14    9
 9.117055079426782e-05    3    3   14   10
 5.211437055311494e-05    3    3   14   11
 5.347468751835474e-05    3    3   14   12
 -0.0001077913712320801    3    3   14   13
 0.08036303395306468    3    3   14   14
 0.001676059014490981    4    1    1    1
 -1.553587500813134e-05    4    1    2    1
 -0.0006585486358068979    4    1    2    2
 4.255549778198519e-06    4    1    3    1
 -4.96045289197362e-08    4    1    3    2
 0.0004025379150842846    4    1    3    3
 0.0001073300214650328    4    1    4    1
 1.81175237974619e-05    4    1    4    2
 -8.843334079203122e-06    4    1    4    3
 0.002047170281982602    4    1    4    4
 6.270540366592388e-07    4    1    5    1
 -1.606982134129788e-07    4    1    5    2
 3.962338463329459e-06    4    1    5    3
 4.658571868003068e-06    4    1    5    4
 0.0005936893603344763    4    1    5    5
 -0.0002155801727539284    4    1    6    1
 8.073619302503012e-07    4    1    6    2
 7.955553299809059e-08    4    1    6    3
 -0.0002450889230613566    4    1    6    4
 6.554281485954669e-06    4    1    6    5
 -0.0004849073968366702    4    1    6    6
 5.609715343790546e-05    4    1    7    1
 2.189233639286552e-06    4    1    7    2
 -1.256488135088577e-07    4    1    7    3
 1.045562898078728e-05    4    1    7    4
 5.849261288600409e-06    4    1    7    5
 4.182211688478886e-05    4    1    7    6
 0.00139243136340123    4    1    7    7
 -7.361380137550662e-06    4    1    8    1
 5.396522455251154e-06    4    1    8    2
 2.962068136317926e-07    4    1    8    3
 -9.056668511115478e-06    4    1    8    4
 8.916579685739159e-07    4    1    8    5
 0.0001119062086462578    4    1    8    6
 1.973356758544638e-06    4    1    8    7
 -0.000940045488789117    4    1    8    8
 -2.028890425574116e-05    4    1    9    1
 1.860340005761596e-07    4    1    9    2
 -5.350012237203628e-07    4    1    9    3
 -2.256371475038672e-05    4    1    9    4
 -2.615683801711046e-05    4    1    9    5
 -1.282358975003356e-05    4    1    9    6
 -6.9404066787005e-06    4    1    9    7
 -2.278572789074393e-06    4    1    9    8
 0.001280043833188384    4    1    9    9
 4.220873355635189e-06    4    1   10    1
 1.705175684002057e-07    4    1   10    2
 -7.240520046913279e-06    4    1   10    3
 4.262582603760172e-07    4    1   10    4
 2.90565560680604e-06    4    1   10    5
 8.782122061577556e-06    4    1   10    6
 2.852810747486439e-06    4    1   10    7
 1.301755750396385e-06    4    1   10    8
 -6.336948257982558e-06    4    1   10    9
 0.0006467854602233995    4    1   10   10
 1.058313862983746e-06    4    1   11    1
 -1.171922166032607e-06    4    1   11    2
 -3.366210163901009e-06    4    1   11    3
 5.132054293471115e-05    4    1   11    4
 4.32246068898554e-06    4    1   11    5
 4.573335897841085e-05    4    1   11    6
 1.767846001239855e-05    4    1   11    7
 1.648158973003515e-06    4    1   11    8
 -5.076164715758604e-06    4    1   11    9