 &FCI NORB=  14,NELEC=14,MS2=0,
  ORBSYM=1,1,1,1,1,1,1,1,1,1,1,1,1,1,
  ISYM=1,
 &END
 0.2400349121901183    1    1    1    1
 0.2008251006185061    1    1    2    2
 -0.03739592561107873    1    1    3    1
 0.1939065155358226    1    1    3    3
 0.2313062354477239    1    1    4    4
 0.195494814487473    1    1    5    5
 0.04183142047255449    1    1    6    2
 0.2259913294301923    1    1    6    6
 -0.03296730928625441    1    1    7    4
 0.2102973511756687    1    1    7    7
 0.001530014499704577    1    1    8    1
 0.02020747022937132    1    1    8    3
 0.2110104004623166    1    1    8    8
 0.03081266018751935    1    1    9    5
 0.2240147584614461    1    1    9    9
 -0.004646726651832663    1    1   10    2
 -0.03201208737382379    1    1   10    6
 0.1992278401294466    1    1   10   10
 -0.01356538517967621    1    1   11    1
 0.009571279569361168    1    1   11    3
 -0.03249938273596405    1    1   11    8
 0.2369202776241652    1    1   11   11
 -0.008981080164191474    1    1   12    4
 -0.02027395181088446    1    1   12    7
 0.1915250374293651    1    1   12   12
 0.004762431557649545    1    1   13    5
 0.04381711820115153    1    1   13    9
 0.2067326730687014    1    1   13   13
 0.01341862263819366    1    1   14    4
 -0.001650104361836669    1    1   14    7
 -0.03571592591198947    1    1   14   12
 0.2477181111200004    1    1   14   14
 0.06482130678916379    2    1    2    1
 0.04298232747001252    2    1    3    2
 0.06028100201903953    2    1    5    4
 0.02452923655292271    2    1    6    1
 -0.05844271039258394    2    1    6    3
 0.04999274286957524    2    1    7    5
 0.01406701107677354    2    1    8    2
 0.03735516950072936    2    1    8    6
 0.01977377083099265    2    1    9    4
 -0.0356764413558421    2    1    9    7
 -0.004420743840901718    2    1   10    1
 0.005649126903699937    2    1   10    3
 0.05140823643473497    2    1   10    8
 -0.008912932567726028    2    1   11    2
 -0.02052720893804873    2    1   11    6
 0.05968815548914331    2    1   11   10
 -0.006034213769350988    2    1   12    5
 -0.06054450568512538    2    1   12    9
 0.008875680449239972    2    1   13    4
 -0.01441179346717705    2    1   13    7
 0.04337416217287389    2    1   13   12
 0.005105106856277087    2    1   14    5
 0.02561714206613686    2    1   14    9
 0.06490050029257668    2    1   14   13
 0.200825100618506    2    2    1    1
 0.205164043135305    2    2    2    2
 0.003431752572786941    2    2    3    1
 0.1990859434209689    2    2    3    3
 0.19434526988676    2    2    4    4
 0.2024562253066176    2    2    5    5
 0.003197498819522889    2    2    6    2
 0.2060197341668197    2    2    6    6
 0.008817947874468038    2    2    7    4
 0.1919369548984274    2    2    7    7
 0.008949837376577074    2    2    8    1
 -0.005796676000658288    2    2    8    3
 0.1952083191197119    2    2    8    8
 0.002292105894410155    2    2    9    5
 0.2062672137476773    2    2    9    9
 -0.001197258807265307    2    2   10    2
 -0.002637254065989327    2    2   10    6
 0.2048894449255862    2    2   10   10
 -0.01055436905949288    2    2   11    1
 0.007339715413142561    2    2   11    3
 0.007518947442782194    2    2   11    8
 0.1975760876383623    2    2   11   11
 -0.00713857143883198    2    2   12    4
 0.004889168836434319    2    2   12    7
 0.2015062657135229    2    2   12   12
 0.0007877849928962278    2    2   13    5
 0.002781099721881031    2    2   13    9
 0.2070122113955331    2    2   13   13
 0.01005146960894903    2    2   14    4
 -0.00809506977358372    2    2   14    7
 0.002380112180848866    2    2   14   12
 0.2044165909951804    2    2   14   14
 -0.03739592561107874    3    1    1    1
 0.003431752572786942    3    1    2    2
 0.03837186814929072    3    1    3    1
 0.004663325233573521    3    1    3    3
 -0.03458621148487265    3    1    4    4
 0.006268714266698349    3    1    5    5
 -0.03687648295919531    3    1    6    2
 -0.02008741484635725    3    1    6    6
 0.03875006307038681    3    1    7    4
 -0.01672442647625715    3    1    7    7
 0.006223424524765798    3    1    8    1
 -0.02369640733821242    3    1    8    3
 -0.01444034907064973    3    1    8    8
 -0.02713357342372043    3    1    9    5
 -0.01787560249020089    3    1    9    9
 0.00376016816576258    3    1   10    2
 0.02805363679868292    3    1   10    6
 0.004948072788201742    3    1   10   10
 0.004177427983059976    3    1   11    1
 -0.002804374963287175    3    1   11    3
 0.03723469214357539    3    1   11    8
 -0.03709960021429278    3    1   11   11
 0.002341596969287468    3    1   12    4
 0.02296142275438511    3    1   12    7
 0.009142826397262622    3    1   12   12
 -0.004212890259797084    3    1   13    5
 -0.03915325774798811    3    1   13    9
 -0.0004430589747560924    3    1   13   13
 -0.004423005044316768    3    1   14    4
 -0.005351275591143253    3    1   14    7
 0.03590903529882847    3    1   14   12
 -0.04150539446170441    3    1   14   14
 0.04298232747001252    3    2    2    1
 0.06276905733349425    3    2    3    2
 0.04369341524244429    3    2    5    4
 -0.01622834234402862    3    2    6    1
 -0.05282772361304861    3    2    6    3
 0.05367088684680926    3    2    7    5
 -0.00683836043887678    3    2    8    2
 0.0343782616667889    3    2    8    6
 -0.01256779851936289    3    2    9    4
 -0.03293300620442935    3    2    9    7
 0.003224330013652037    3    2   10    1
 -0.01674277845226192    3    2   10    3
 0.05496609642699982    3    2   10    8
 0.0004528639978476637    3    2   11    2
 0.01117646986695284    3    2   11    6
 0.04283176668319043    3    2   11   10
 0.0163538878299894    3    2   12    5
 -0.05672859705186274    3    2   12    9
 -0.001317276584967224    3    2   13    4
 0.006248828258338276    3    2   13    7
 0.06345235529698064    3    2   13   12
 -0.003434477799356503    3    2   14    5
 -0.01571716531297777    3    2   14    9
 0.04007616634169725    3    2   14   13
 0.1939065155358226    3    3    1    1
 0.199085943420969    3    3    2    2
 0.004663325233573538    3    3    3    1
 0.2048834114919616    3    3    3    3
 0.1892743954091425    3    3    4    4
 0.190556883410681    3    3    5    5
 -0.008540077908247495    3    3    6    2
 0.2024576424694298    3    3    6    6
 0.0007158994557542316    3    3    7    4
 0.1927298366922238    3    3    7    7
 -0.005486849977260698    3    3    8    1
 -0.01138101350520383    3    3    8    3
 0.1951848601031949    3    3    8    8
 -0.007035080070467521    3    3    9    5
 0.2031747551022582    3    3    9    9
 -0.01202538219522757    3    3   10    2
 0.005763142385461528    3    3   10    6
 0.1941358618546547    3    3   10   10
 -0.006560719013248233    3    3   11    1
 -0.005060497219819197    3    3   11    3
 0.0008470599283932411    3    3   11    8
 0.1927152948642513    3    3   11   11
 0.006213625331010155    3    3   12    4
 0.01072218123710485    3    3   12    7
 0.2066464370356072    3    3   12   12
 0.0110185924116558    3    3   13    5
 -0.008254361199199065    3    3   13    9
 0.2015946173497949    3    3   13   13
 0.005794348633428805    3    3   14    4
 0.00436575813610239    3    3   14    7
 0.004614905151214347    3    3   14   12
 0.1969045708623181    3    3   14   14
 0.05468201133663    4    1    4    1
 -0.01419627603328487    4    1    4    3
 0.03832987072848437    4    1    5    2
 0.009940793723883056    4    1    6    5
 -0.01480832825563473    4    1    7    1
 0.04026256758388927    4    1    7    3
 -0.006366295695883508    4    1    8    4
 0.04011228123979419    4    1    8    7
 0.01498093642195332    4    1    9    2
 0.0404016639561544    4    1    9    6
 0.02126024978488847    4    1   10    5
 -0.007735847782157565    4    1   10    9
 0.02555846696179313    4    1   11    4
 -0.008593516855841301    4    1   11    7
 -0.003843021698900017    4    1   12    1
 -0.0007551142503167621    4    1   12    3
 -0.04130024025320531    4    1   12    8
 0.01249892313385561    4    1   12   11
 0.004669976854953607    4    1   13    2
 0.01620044764029039    4    1   13    6
 -0.0403940168880348    4    1   13   10
 0.005411238993360096    4    1   14    1
 -0.004002680932035854    4    1   14    3
 0.0154376494086907    4    1   14    8
 -0.05718340636118448    4    1   14   11
 0.02659905352662888    4    2    4    2
 0.02660841144027056    4    2    5    1
 0.0180567434702914    4    2    5    3
 0.008479124679136096    4    2    6    4
 0.01947496955057957    4    2    7    2
 -0.01228766833418523    4    2    7    6
 0.01939945263481466    4    2    8    5
 0.0114890718188397    4    2    9    1
 -0.01884668585774531    4    2    9    3
 0.01266738730179883    4    2    9    8
 0.01217396662375635    4    2   10    4
 0.01946865476626055    4    2   10    7
 0.01224166695128794    4    2   11    5
 -0.006572746113227556    4    2   11    9
 -0.004483421487990191    4    2   12    2
 -0.01844718846711952    4    2   12    6
 -0.02011750372822138    4    2   12   10
 0.004039760121596863    4    2   13    1
 -0.005252178129099738    4    2   13    3
 -0.02069220348692668    4    2   13    8
 -0.02646899825963896    4    2   13   11
 0.003791928840265352    4    2   14    2
 0.01194374074044456    4    2   14    6
 -0.0263947856859256    4    2   14   10
 -0.01419627603328487    4    3    4    1
 0.02135087834417227    4    3    4    3
 0.009562759841247513    4    3    5    2
 -0.01153668524000384    4    3    6    5
 0.02314999958768625    4    3    7    1
 -0.001586557086813404    4    3    7    3
 0.01656869722623748    4    3    8    4
 -0.01402764915914405    4    3    8    7
 -0.01536765737518392    4    3    9    2
 -0.004731061739990389    4    3    9    6
 0.009298854027102583    4    3   10    5
 0.01123340672969228    4    3   10    9
 -0.006094187419159557    4    3   11    4
 0.01745083318305059    4    3   11    7
 -0.0005866810657565837    4    3   12    1
 0.01258217756216758    4    3   12    3
 0.0007343930925979442    4    3   12    8
 -0.02055324080104086    4    3   12   11
 -0.004385129111807874    4    3   13    2
 -0.0154722484686497    4    3   13    6
 -0.008891035856858565    4    3   13   10
 -0.002325183925486841    4    3   14    1
 -0.0007715368662237807    4    3   14    3
 -0.02284036340449632    4    3   14    8
 0.01586203928662984    4    3   14   11
 0.231306235447724    4    4    1    1
 0.19434526988676    4    4    2    2
 -0.03458621148487268    4    4    3    1
 0.1892743954091425    4    4    3    3
 0.2304771070349032    4    4    4    4
 0.1948182255795609    4    4    5    5
 0.03607775960608513    4    4    6    2
 0.211133704444132    4    4    6    6
 -0.03369291215589457    4    4    7    4
 0.2133209917811159    4    4    7    7
 -0.002263379373337088    4    4    8    1
 0.0269107479019444    4    4    8    3
 0.2135501814906414    4    4    8    8
 0.02778233701668264    4    4    9    5
 0.2118247345536735    4    4    9    9
 0.003088364298197319    4    4   10    2
 -0.02739959319233791    4    4   10    6
 0.1975267044550968    4    4   10   10
 -0.0003753677123711153    4    4   11    1
 0.004780413415721169    4    4   11    3
 -0.03285968833308323    4    4   11    8
 0.234478225510252    4    4   11   11
 -0.005587767234133581    4    4   12    4
 -0.026678043389103    4    4   12    7
 0.1887179032563809    4    4   12   12
 -0.002155897814989796    4    4   13    5
 0.03816958498676458    4    4   13    9
 0.2010591983872327    4    4   13   13
 0.001628631246664164    4    4   14    4
 0.002577992297548737    4    4   14    7
 -0.03345053257881109    4    4   14   12
 0.2399359322036794    4    4   14   14
 0.02660841144027056    5    1    4    2
 0.02668629571284031    5    1    5    1
 0.01847130437794216    5    1    5    3
 0.007986814926531157    5    1    6    4
 0.01998227277461599    5    1    7    2
 -0.01192668288848412    5    1    7    6
 0.01999014686135143    5    1    8    5
 0.01089402767277993    5    1    9    1
 -0.01832942877531516    5    1    9    3
 0.01255621844381946    5    1    9    8
 0.013003898839446    5    1   10    4
 0.0199131212245638    5    1   10    7
 0.01294278465279103    5    1   11    5
 -0.006150174056351505    5    1   11    9
 -0.004733008570800064    5    1   12    2
 -0.01810165091469644    5    1   12    6
 -0.02056185723217908    5    1   12   10
 0.003177150795593137    5    1   13    1
 -0.005320054308021589    5    1   13    3
 -0.02112238234268809    5    1   13    8
 -0.02649075671065376    5    1   13   11
 0.003066971111959038    5    1   14    2
 0.01134283067809169    5    1   14    6
 -0.02640991697193149    5    1   14   10
 0.03832987072848436    5    2    4    1
 0.009562759841247522    5    2    4    3
 0.04849664631308271    5    2    5    2
 -0.002292383897399008    5    2    6    5
 0.01115545376081043    5    2    7    1
 0.03741956993584232    5    2    7    3
 0.01295837048949407    5    2    8    4
 0.02409035338980532    5    2    8    7
 -0.001296054608881569    5    2    9    2
 0.03473659248110065    5    2    9    6
 0.03177026128397601    5    2   10    5
 0.00423019193724515    5    2   10    9
 0.01804087971266494    5    2   11    4
 0.01162880915564089    5    2   11    7
 -0.00533480401396499    5    2   12    1
 0.01263769106724229    5    2   12    3
 -0.03953305560719596    5    2   12    8
 -0.01034177836266148    5    2   12   11
 -0.0006379390188213335    5    2   13    2
 -0.0002792851599460875    5    2   13    6
 -0.04984596509423737    5    2   13   10
 0.003319174457007359    5    2   14    1
 -0.005612705800868881    5    2   14    3
 -0.01007805886131297    5    2   14    8
 -0.03909602372567555    5    2   14   11
 0.01805674347029141    5    3    4    2
 0.01847130437794215    5    3    5    1
 0.02416443168954448    5    3    5    3
 -0.006215852563017816    5    3    6    4
 0.02398348276754828    5    3    7    2
 -0.01081564163124499    5    3    7    6
 0.01092796833248854    5    3    8    5
 -0.00732530454362843    5    3    9    1
 -0.01686227928779893    5    3    9    3
 0.01139618076995386    5    3    9    8
 0.01311075142696346    5    3   10    4
 0.01132038805668494    5    3   10    7
 0.01308704396144409    5    3   11    5
 0.005725506184637243    5    3   11    9
 0.008030770051453735    5    3   12    2
 -0.0166882749771023    5    3   12    6
 -0.02466164832054745    5    3   12   10
 -0.002873176090090792    5    3   13    1
 0.007303829105165135    5    3   13    3
 -0.02425510213950196    5    3   13    8
 -0.01794801785384054    5    3   13   11
 -0.002930028782286706    5    3   14    2
 -0.006235086772888553    5    3   14    6
 -0.01824110399242616    5    3   14   10
 0.06028100201903954    5    4    2    1
 0.04369341524244431    5    4    3    2
 0.06145793713125929    5    4    5    4
 0.0181950200207556    5    4    6    1
 -0.05063242692357985    5    4    6    3
 0.05423262935006078    5    4    7    5
 0.01834543203479046    5    4    8    2
 0.03211088620743589    5    4    8    6
 0.01582448039987429    5    4    9    4
 -0.03139599364845685    5    4    9    7
 0.004433570418409268    5    4   10    1
 0.009624943490465186    5    4   10    3
 0.05576209295361724    5    4   10    8
 0.0001398196074616167    5    4   11    2
 -0.01512469759094019    5    4   11    6
 0.05990643716570586    5    4   11   10
 -0.0102187440133042    5    4   12    5
 -0.05399055877260354    5    4   12    9
 0.0004297770320306624    5    4   13    4
 -0.01849960454056927    5    4   13    7
 0.04511885297038237    5    4   13   12
 -0.002947073592910065    5    4   14    5
 0.01917540360757741    5    4   14    9
 0.06067382370441399    5    4   14   13
 0.1954948144874729    5    5    1    1
 0.2024562253066175    5    5    2    2
 0.006268714266698341    5    5    3    1
 0.1905568834106811    5    5    3    3
 0.1948182255795609    5    5    4    4
 0.2102628871173683    5    5    5    5
 0.004377749253184079    5    5    6    2
 0.193096269708564    5    5    6    6
 0.01601291378914455    5    5    7    4
 0.1935020854140338    5    5    7    7
 0.01572432821355713    5    5    8    1
 0.00388919107323588    5    5    8    3
 0.1959776910850558    5    5    8    8
 0.003946339798802114    5    5    9    5
 0.1953747249202651    5    5    9    9
 0.01439120612968515    5    5   10    2
 -0.003831109396028652    5    5   10    6
 0.2117790568683799    5    5   10   10
 -0.0009796362606696726    5    5   11    1
 0.01261243565304369    5    5   11    3
 0.01478771136949771    5    5   11    8
 0.1966059643274747    5    5   11   11
 -0.01315280910952389    5    5   12    4
 -0.003951170382630654    5    5   12    7
 0.1950370260176262    5    5   12   12
 -0.01385726909355955    5    5   13    5
 0.003283821211379761    5    5   13    9
 0.2058560296775332    5    5   13   13
 0.001523578825760219    5    5   14    4
 -0.01422724484959586    5    5   14    7
 0.005668222911149332    5    5   14   12
 0.1996117973847378    5    5   14   14
 0.0245292365529227    6    1    2    1
 -0.01622834234402861    6    1    3    2
 0.01819502002075559    6    1    5    4
 0.04042309775150545    6    1    6    1
 -0.01029379579631096    6    1    6    3
 -0.001756941381135538    6    1    7    5
 0.01883534456970244    6    1    8    2
 0.005914472677380663    6    1    8    6
 0.03184856314610837    6    1    9    4
 -0.005704210504182529    6    1    9    7
 -0.009527974146979725    6    1   10    1
 0.02004741670005929    6    1   10    3
 -0.001505983325706712    6    1   10    8
 -0.01125481751669603    6    1   11    2
 -0.03166722558732094    6    1   11    6
 0.01884474176019537    6    1   11   10
 -0.01980797835616149    6    1   12    5
 -0.008497554652342098    6    1   12    9
 0.01204377064968062    6    1   13    4
 -0.01889268835647953    6    1   13    7
 -0.01646343259380182    6    1   13   12
 0.01009162999151556    6    1   14    5
 0.04115783684339484    6    1   14    9
 0.0277063495200549    6    1   14   13
 0.0418314204725545    6    2    1    1
 0.003197498819522879    6    2    2    2
 -0.03687648295919532    6    2    3    1
 -0.008540077908247507    6    2    3    3
 0.03607775960608514    6    2    4    4
 0.004377749253184097    6    2    5    5
 0.0452381488075404    6    2    6    2
 0.02470030601328241    6    2    6    6
 -0.02846571170652948    6    2    7    4
 0.01371461301556628    6    2    7    7
 0.007567633508304471    6    2    8    1
 0.0248934038669348    6    2    8    3
 0.01251527872664689    6    2    8    8
 0.03367388289302246    6    2    9    5
 0.02198115396772293    6    2    9    9
 0.004012453154365892    6    2   10    2
 -0.03397741634776593    6    2   10    6
 0.004916489381541642    6    2   10   10
 -0.01026860424496833    6    2   11    1
 0.01426797912918863    6    2   11    3
 -0.02842266630566258    6    2   11    8
 0.03872060467006085    6    2   11   11
 -0.01442058418540889    6    2   12    4
 -0.02452956142037169    6    2   12    7
 -0.01215161934673562    6    2   12   12
 -0.00319979916653599    6    2   13    5
 0.04681617947919959    6    2   13    9
 0.006416369829420196    6    2   13   13
 0.01054987692688262    6    2   14    4
 -0.006744505482579901    6    2   14    7
 -0.03551660863122592    6    2   14   12
 0.04657961157789853    6    2   14   14
 -0.05844271039258393    6    3    2    1
 -0.05282772361304861    6    3    3    2
 -0.05063242692357986    6    3    5    4
 -0.01029379579631096    6    3    6    1
 0.06595572011587653    6    3    6    3
 -0.04706830770551235    6    3    7    5
 0.003251641603062142    6    3    8    2
 -0.04193331070741955    6    3    8    6
 -0.007845965486022085    6    3    9    4
 0.04101016874087825    6    3    9    7
 0.01135796004827649    6    3   10    1
 0.01128735208435169    6    3   10    3
 -0.04923641905757294    6    3   10    8
 0.01438472492393583    6    3   11    2
 0.009398546323223875    6    3   11    6
 -0.05118299658345415    6    3   11   10
 -0.01171684081058432    6    3   12    5
 0.06783986362719541    6    3   12    9
 -0.0145250378594868    6    3   13    4
 -0.001284160193974357    6    3   13    7
 -0.05354549583852365    6    3   13   12
 -0.01037585175813485    6    3   14    5
 -0.01144897835167562    6    3   14    9
 -0.0583828493757221    6    3   14   13
 0.008479124679136096    6    4    4    2
 0.007986814926531156    6    4    5    1
 -0.006215852563017815    6    4    5    3
 0.01489470524269065    6    4    6    4
 -0.004816193727302569    6    4    7    2
 -0.002160031247149342    6    4    7    6
 0.007387875732949912    6    4    8    5
 0.01905763196977394    6    4    9    1
 -0.003045861160877029    6    4    9    3
 0.001688852259084528    6    4    9    8
 -0.00210865091721503    6    4   10    4
 0.007288446785225316    6    4   10    7
 -0.001855555207285885    6    4   11    5
 -0.01265471386888147    6    4   11    9
 -0.01157376742073938    6    4   12    2
 -0.002615553717870531    6    4   12    6
 0.004768007063612221    6    4   12   10
 0.008101824413899592    6    4   13    1
 -0.01189614156986361    6    4   13    3
 0.003826525270168098    6    4   13    8
 -0.008623889054607089    6    4   13   11
 0.007748996835115657    6    4   14    2
 0.0186133311541772    6    4   14    6
 -0.008254249256744395    6    4   14   10
 0.009940793723883063    6    5    4    1
 -0.01153668524000384    6    5    4    3
 -0.002292383897399004    6    5    5    2
 0.01237836972577207    6    5    6    5
 -0.01048569577844762    6    5    7    1
 -0.003009198969724496    6    5    7    3
 0.0004514808674240126    6    5    8    4
 0.008561996791103739    6    5    8    7
 0.01688740465783431    6    5    9    2
 0.004487696219488303    6    5    9    6
 0.001235128069618469    6    5   10    5
 -0.01104762731185471    6    5   10    9
 -0.0002041760281839354    6    5   11    4
 -0.0009141088355110562    6    5   11    7
 -0.008423802008994211    6    5   12    1
 -0.0114594857428996    6    5   12    3
 0.002486339426564532    6    5   12    8
 0.01065308225293651    6    5   12   11
 -0.001688105728986864    6    5   13    2
 0.01618653657136541    6    5   13    6
 0.001775957767249709    6    5   13   10
 0.006433357927336422    6    5   14    1
 -0.007577595684110758    6    5   14    3
 0.01077389462606342    6    5   14    8
 -0.01079493273508115    6    5   14   11
 0.2259913294301923    6    6    1    1
 0.2060197341668198    6    6    2    2
 -0.02008741484635725    6    6    3    1
 0.2024576424694298    6    6    3    3
 0.2111337044441319    6    6    4    4
 0.1930962697085641    6    6    5    5
 0.02470030601328242    6    6    6    2
 0.2309076706646262    6    6    6    6
 -0.01563972412797662    6    6    7    4
 0.1965516127348449    6    6    7    7
 0.003345025879600986    6    6    8    1
 -0.003388557296337959    6    6    8    3
 0.19936928127404    6    6    8    8
 0.01709515077921606    6    6    9    5
 0.2288433650683574    6    6    9    9
 -0.01711686325785175    6    6   10    2
 -0.01889745643102369    6    6   10    6
 0.1979902547463825    6    6   10   10
 -0.02559817107513242    6    6   11    1
 0.008118694507632765    6    6   11    3
 -0.01583541148980709    6    6   11    8
 0.2176093878946776    6    6   11   11
 -0.006522064869666028    6    6   12    4
 0.002398430244449838    6    6   12    7
 0.2018340925104513    6    6   12   12
 0.01622683560130853    6    6   13    5
 0.02610374857424474    6    6   13    9
 0.211014063636505    6    6   13   13
 0.02454224315763496    6    6   14    4
 -0.004058991512098179    6    6   14    7
 -0.01948185396035816    6    6   14   12
 0.2332131206921584    6    6   14   14
 -0.01480832825563471    7    1    4    1
 0.02314999958768625    7    1    4    3
 0.01115545376081042    7    1    5    2
 -0.01048569577844763    7    1    6    5
 0.02577093533240494    7    1    7    1
 -0.003144692372166999    7    1    7    3
 0.02104333729503731    7    1    8    4
 -0.01502511711854577    7    1    8    7
 -0.01386043263756058    7    1    9    2
 -0.004605637566466531    7    1    9    6
 0.01201274485279963    7    1   10    5
 0.01060777442509477    7    1   10    9
 -0.007845859363459556    7    1   11    4
 0.02167614651570204    7    1   11    7
 -0.003494267852965844    7    1   12    1
 0.0121250835213399    7    1   12    3
 0.00183765157418805    7    1   12    8
 -0.02245974534018393    7    1   12   11
 -0.006063727303770206    7    1   13    2
 -0.01428006982474605    7    1   13    6
 -0.01048176513391116    7    1   13   10
 -0.0008227368984603794    7    1   14    1
 -0.003408146946450446    7    1   14    3
 -0.02529007410779473    7    1   14    8
 0.01665209348862016    7    1   14   11
 0.01947496955057957    7    2    4    2
 0.01998227277461598    7    2    5    1
 0.02398348276754826    7    2    5    3
 -0.004816193727302571    7    2    6    4
 0.0243099862352534    7    2    7    2
 -0.01011891132884911    7    2    7    6
 0.01387579871185123    7    2    8    5
 -0.005437797018394355    7    2    9    1
 -0.01579640563062041    7    2    9    3
 0.01119897072218936    7    2    9    8
 0.01497592872480067    7    2   10    4
 0.0139009069492821    7    2   10    7
 0.01468201598847581    7    2   11    5
 0.004539542221655704    7    2   11    9
 0.005107899954370118    7    2   12    2
 -0.0159606217394398    7    2   12    6
 -0.02480004142777649    7    2   12   10
 -0.003818642660479064    7    2   13    1
 0.004774173496955497    7    2   13    3
 -0.02457377084398372    7    2   13    8
 -0.01944013352433108    7    2   13   11
 -0.003598035675670842    7    2   14    2
 -0.004454581488332712    7    2   14    6
 -0.01966504002690065    7    2   14   10
 0.04026256758388927    7    3    4    1
 -0.001586557086813402    7    3    4    3
 0.03741956993584233    7    3    5    2
 -0.003009198969724495    7    3    6    5
 -0.003144692372167007    7    3    7    1
 0.03977683475221459    7    3    7    3
 -0.006075661005662757    7    3    8    4
 0.02835680539288735    7    3    8    7
 -0.002761782876025892    7    3    9    2
 0.03266988754248269    7    3    9    6
 0.01841331732828456    7    3   10    5
 0.003613431309375304    7    3   10    9
 0.02353527769538188    7    3   11    4
 -0.006766073126472884    7    3   11    7
 0.004602029608333265    7    3   12    1
 0.01050819272077495    7    3   12    3
 -0.04028604088199393    7    3   12    8
 0.001026232705876103    7    3   12   11
 0.005859064789069985    7    3   13    2
 -0.000878762409199863    7    3   13    6
 -0.03894852997948735    7    3   13   10
 -0.00124872237714053    7    3   14    1
 0.00358992422269678    7    3   14    3
 0.003562584214913157    7    3   14    8
 -0.04207409776382053    7    3   14   11
 -0.03296730928625439    7    4    1    1
 0.008817947874468053    7    4    2    2
 0.03875006307038682    7    4    3    1
 0.0007158994557542255    7    4    3    3
 -0.03369291215589459    7    4    4    4
 0.01601291378914455    7    4    5    5
 -0.0284657117065295    7    4    6    2
 -0.01563972412797662    7    4    6    6
 0.04865905133180187    7    4    7    4
 -0.0198125379883597    7    4    7    7
 0.01934247919252047    7    4    8    1
 -0.02226142016221944    7    4    8    3
 -0.01747879537426425    7    4    8    8
 -0.02128097948107313    7    4    9    5
 -0.01416767927337825    7    4    9    9
 0.011274603844361    7    4   10    2
 0.02131335501526127    7    4   10    6
 0.01482828892565227    7    4   10   10
 -0.002396414552931291    7    4   11    1
 0.009409655677150047    7    4   11    3
 0.04675422408554952    7    4   11    8
 -0.03608027690764798    7    4   11   11
 -0.009333655955170994    7    4   12    4
 0.02189606031326957    7    4   12    7
 0.005536643903590518    7    4   12   12
 -0.01159916873699974    7    4   13    5
 -0.03152065416346035    7    4   13    9
 0.005675849361382442    7    4   13   13
 0.001875561729837636    7    4   14    4
 -0.01815180757783607    7    4   14    7
 0.03709870886580083    7    4   14   12
 -0.03728963830432325    7    4   14   14
 0.04999274286957526    7    5    2    1
 0.05367088684680924    7    5    3    2
 0.05423262935006077    7    5    5    4
 -0.001756941381135541    7    5    6    1
 -0.04706830770551234    7    5    6    3
 0.05796045192217936    7    5    7    5
 0.01001903534139195    7    5    8    2
 0.03016771201364263    7    5    8    6
 -0.001012135180920539    7    5    9    4
 -0.0293630530691245    7    5    9    7
 0.009610937259711428    7    5   10    1
 0.0005421874805746289    7    5   10    3
 0.05848047983246694    7    5   10    8
 0.005897460051853883    7    5   11    2
 -0.0005726235983392346    7    5   11    6
 0.0532734755222246    7    5   11   10
 -0.0003671343137051918    7    5   12    5
 -0.05130167437686987    7    5   12    9
 -0.006526969933457907    7    5   13    4
 -0.009607045005184323    7    5   13    7
 0.05532014353784923    7    5   13   12
 -0.008879735065811828    7    5   14    5
 -0.001412253835146832    7    5   14    9
 0.0488348839837528    7    5   14   13
 -0.01228766833418523    7    6    4    2
 -0.01192668288848412    7    6    5    1
 -0.01081564163124498    7    6    5    3
 -0.002160031247149348    7    6    6    4
 -0.01011891132884911    7    6    7    2
 0.0101641718289779    7    6    7    6
 -0.002295902813532542    7    6    8    5
 -0.00284319834032451    7    6    9    1
 0.01577777534156241    7    6    9    3
 -0.009106769708169048    7    6    9    8
 -0.0004049031121817552    7    6   10    4
 -0.003369713749435463    7    6   10    7
 -0.001232553198192094    7    6   11    5
 0.001644824547927271    7    6   11    9
 -0.006167847049480802    7    6   12    2
 0.01460175700072578    7    6   12    6
 0.01125109315209071    7    6   12   10