[Molden Format]
made by pyscf v[2.6.2]
[Atoms] (AU)
C   1   6    -6.89057736642100     1.34708197213400     0.00000000000000
C   2   6    -6.89057736642100    -1.34708197213400     0.00000000000000
H   3   1    -8.67851064272000    -2.35274940364800     0.00000000000000
H   4   1    -8.67851064272000     2.35274940364800     0.00000000000000
C   5   6    -4.67281867250400     2.65001080964900     0.00000000000000
C   6   6    -4.67281867250400    -2.65001080964900     0.00000000000000
C   7   6    -2.30211174438900     1.35516771450000     0.00000000000000
C   8   6    -2.30211174438900    -1.35516771450000     0.00000000000000
H   9   1    -4.66415233515700     4.70308585273500     0.00000000000000
H   10   1    -4.66415233515700    -4.70308585273500     0.00000000000000
C   11   6     0.00000000000000     2.63879101222700     0.00000000000000
C   12   6     0.00000000000000    -2.63879101222700     0.00000000000000
C   13   6     2.30211174438900     1.35516771450000     0.00000000000000
C   14   6     2.30211174438900    -1.35516771450000     0.00000000000000
H   15   1     0.00000000000000     4.69349839262500     0.00000000000000
H   16   1     0.00000000000000    -4.69349839262500     0.00000000000000
C   17   6     4.67281867250400     2.65001080964900     0.00000000000000
C   18   6     4.67281867250400    -2.65001080964900     0.00000000000000
C   19   6     6.89057736642100     1.34708197213400     0.00000000000000
C   20   6     6.89057736642100    -1.34708197213400     0.00000000000000
H   21   1     4.66415233515700     4.70308585273500     0.00000000000000
H   22   1     4.66415233515700    -4.70308585273500     0.00000000000000
H   23   1     8.67851064272000     2.35274940364800     0.00000000000000
H   24   1     8.67851064272000    -2.35274940364800     0.00000000000000
[GTO]
1 0
 s    6 1.00
             3047.5249  0.0018347001629433
             457.36951    0.01403730124668
             103.94869   0.068842606114048
             29.210155    0.23218442062076
              9.286663    0.46794134155879
              3.163927    0.36231203217765
 s    3 1.00
             7.8682724   -0.11933240861517
             1.8812885   -0.16085421161283
             0.5442493     1.1434564825515
 s    1 1.00
             0.1687144                   1
 p    3 1.00
             7.8682724   0.068999095584993
             1.8812885    0.31642397975315
             0.5442493    0.74430825237435
 p    1 1.00
             0.1687144                   1

2 0
 s    6 1.00
             3047.5249  0.0018347001629433
             457.36951    0.01403730124668
             103.94869   0.068842606114048
             29.210155    0.23218442062076
              9.286663    0.46794134155879
              3.163927    0.36231203217765
 s    3 1.00
             7.8682724   -0.11933240861517
             1.8812885   -0.16085421161283
             0.5442493     1.1434564825515
 s    1 1.00
             0.1687144                   1
 p    3 1.00
             7.8682724   0.068999095584993
             1.8812885    0.31642397975315
             0.5442493    0.74430825237435
 p    1 1.00
             0.1687144                   1

3 0
 s    3 1.00
             18.731137    0.03349459952309
             2.8253937    0.23472694665786
             0.6401217    0.81375731841339
 s    1 1.00
             0.1612778                   1

4 0
 s    3 1.00
             18.731137    0.03349459952309
             2.8253937    0.23472694665786
             0.6401217    0.81375731841339
 s    1 1.00
             0.1612778                   1

5 0
 s    6 1.00
             3047.5249  0.0018347001629433
             457.36951    0.01403730124668
             103.94869   0.068842606114048
             29.210155    0.23218442062076
              9.286663    0.46794134155879
              3.163927    0.36231203217765
 s    3 1.00
             7.8682724   -0.11933240861517
             1.8812885   -0.16085421161283
             0.5442493     1.1434564825515
 s    1 1.00
             0.1687144                   1
 p    3 1.00
             7.8682724   0.068999095584993
             1.8812885    0.31642397975315
             0.5442493    0.74430825237435
 p    1 1.00
             0.1687144                   1

6 0
 s    6 1.00
             3047.5249  0.0018347001629433
             457.36951    0.01403730124668
             103.94869   0.068842606114048
             29.210155    0.23218442062076
              9.286663    0.46794134155879
              3.163927    0.36231203217765
 s    3 1.00
             7.8682724   -0.11933240861517
             1.8812885   -0.16085421161283
             0.5442493     1.1434564825515
 s    1 1.00
             0.1687144                   1
 p    3 1.00
             7.8682724   0.068999095584993
             1.8812885    0.31642397975315
             0.5442493    0.74430825237435
 p    1 1.00
             0.1687144                   1

7 0
 s    6 1.00
             3047.5249  0.0018347001629433
             457.36951    0.01403730124668
             103.94869   0.068842606114048
             29.210155    0.23218442062076
              9.286663    0.46794134155879
              3.163927    0.36231203217765
 s    3 1.00
             7.8682724   -0.11933240861517
             1.8812885   -0.16085421161283
             0.5442493     1.1434564825515
 s    1 1.00
             0.1687144                   1
 p    3 1.00
             7.8682724   0.068999095584993
             1.8812885    0.31642397975315
             0.5442493    0.74430825237435
 p    1 1.00
             0.1687144                   1

8 0
 s    6 1.00
             3047.5249  0.0018347001629433
             457.36951    0.01403730124668
             103.94869   0.068842606114048
             29.210155    0.23218442062076
              9.286663    0.46794134155879
              3.163927    0.36231203217765
 s    3 1.00
             7.8682724   -0.11933240861517
             1.8812885   -0.16085421161283
             0.5442493     1.1434564825515
 s    1 1.00
             0.1687144                   1
 p    3 1.00
             7.8682724   0.068999095584993
             1.8812885    0.31642397975315
             0.5442493    0.74430825237435
 p    1 1.00
             0.1687144                   1

9 0
 s    3 1.00
             18.731137    0.03349459952309
             2.8253937    0.23472694665786
             0.6401217    0.81375731841339
 s    1 1.00
             0.1612778                   1

10 0
 s    3 1.00
             18.731137    0.03349459952309
             2.8253937    0.23472694665786
             0.6401217    0.81375731841339
 s    1 1.00
             0.1612778                   1

11 0
 s    6 1.00
             3047.5249  0.0018347001629433
             457.36951    0.01403730124668
             103.94869   0.068842606114048
             29.210155    0.23218442062076
              9.286663    0.46794134155879
              3.163927    0.36231203217765
 s    3 1.00
             7.8682724   -0.11933240861517
             1.8812885   -0.16085421161283
             0.5442493     1.1434564825515
 s    1 1.00
             0.1687144                   1
 p    3 1.00
             7.8682724   0.068999095584993
             1.8812885    0.31642397975315
             0.5442493    0.74430825237435
 p    1 1.00
             0.1687144                   1

12 0
 s    6 1.00
             3047.5249  0.0018347001629433
             457.36951    0.01403730124668
             103.94869   0.068842606114048
             29.210155    0.23218442062076
              9.286663    0.46794134155879
              3.163927    0.36231203217765
 s    3 1.00
             7.8682724   -0.11933240861517
             1.8812885   -0.16085421161283
             0.5442493     1.1434564825515
 s    1 1.00
             0.1687144                   1
 p    3 1.00
             7.8682724   0.068999095584993
             1.8812885    0.31642397975315
             0.5442493    0.74430825237435
 p    1 1.00
             0.1687144                   1

13 0
 s    6 1.00
             3047.5249  0.0018347001629433
             457.36951    0.01403730124668
             103.94869   0.068842606114048
             29.210155    0.23218442062076
              9.286663    0.46794134155879
              3.163927    0.36231203217765
 s    3 1.00
             7.8682724   -0.11933240861517
             1.8812885   -0.16085421161283
             0.5442493     1.1434564825515
 s    1 1.00
             0.1687144                   1
 p    3 1.00
             7.8682724   0.068999095584993
             1.8812885    0.31642397975315
             0.5442493    0.74430825237435
 p    1 1.00
             0.1687144                   1

14 0
 s    6 1.00
             3047.5249  0.0018347001629433
             457.36951    0.01403730124668
             103.94869   0.068842606114048
             29.210155    0.23218442062076
              9.286663    0.46794134155879
              3.163927    0.36231203217765
 s    3 1.00
             7.8682724   -0.11933240861517
             1.8812885   -0.16085421161283
             0.5442493     1.1434564825515
 s    1 1.00
             0.1687144                   1
 p    3 1.00
             7.8682724   0.068999095584993
             1.8812885    0.31642397975315
             0.5442493    0.74430825237435
 p    1 1.00
             0.1687144                   1

15 0
 s    3 1.00
             18.731137    0.03349459952309
             2.8253937    0.23472694665786
             0.6401217    0.81375731841339
 s    1 1.00
             0.1612778                   1

16 0
 s    3 1.00
             18.731137    0.03349459952309
             2.8253937    0.23472694665786
             0.6401217    0.81375731841339
 s    1 1.00
             0.1612778                   1

17 0
 s    6 1.00
             3047.5249  0.0018347001629433
             457.36951    0.01403730124668
             103.94869   0.068842606114048
             29.210155    0.23218442062076
              9.286663    0.46794134155879
              3.163927    0.36231203217765
 s    3 1.00
             7.8682724   -0.11933240861517
             1.8812885   -0.16085421161283
             0.5442493     1.1434564825515
 s    1 1.00
             0.1687144                   1
 p    3 1.00
             7.8682724   0.068999095584993
             1.8812885    0.31642397975315
             0.5442493    0.74430825237435
 p    1 1.00
             0.1687144                   1

18 0
 s    6 1.00
             3047.5249  0.0018347001629433
             457.36951    0.01403730124668
             103.94869   0.068842606114048
             29.210155    0.23218442062076
              9.286663    0.46794134155879
              3.163927    0.36231203217765
 s    3 1.00
             7.8682724   -0.11933240861517
             1.8812885   -0.16085421161283
             0.5442493     1.1434564825515
 s    1 1.00
             0.1687144                   1
 p    3 1.00
             7.8682724   0.068999095584993
             1.8812885    0.31642397975315
             0.5442493    0.74430825237435
 p    1 1.00
             0.1687144                   1

19 0
 s    6 1.00
             3047.5249  0.0018347001629433
             457.36951    0.01403730124668
             103.94869   0.068842606114048
             29.210155    0.23218442062076
              9.286663    0.46794134155879
              3.163927    0.36231203217765
 s    3 1.00
             7.8682724   -0.11933240861517
             1.8812885   -0.16085421161283
             0.5442493     1.1434564825515
 s    1 1.00
             0.1687144                   1
 p    3 1.00
             7.8682724   0.068999095584993
             1.8812885    0.31642397975315
             0.5442493    0.74430825237435
 p    1 1.00
             0.1687144                   1

20 0
 s    6 1.00
             3047.5249  0.0018347001629433
             457.36951    0.01403730124668
             103.94869   0.068842606114048
             29.210155    0.23218442062076
              9.286663    0.46794134155879
              3.163927    0.36231203217765
 s    3 1.00
             7.8682724   -0.11933240861517
             1.8812885   -0.16085421161283
             0.5442493     1.1434564825515
 s    1 1.00
             0.1687144                   1
 p    3 1.00
             7.8682724   0.068999095584993
             1.8812885    0.31642397975315
             0.5442493    0.74430825237435
 p    1 1.00
             0.1687144                   1

21 0
 s    3 1.00
             18.731137    0.03349459952309
             2.8253937    0.23472694665786
             0.6401217    0.81375731841339
 s    1 1.00
             0.1612778                   1

22 0
 s    3 1.00
             18.731137    0.03349459952309
             2.8253937    0.23472694665786
             0.6401217    0.81375731841339
 s    1 1.00
             0.1612778                   1

23 0
 s    3 1.00
             18.731137    0.03349459952309
             2.8253937    0.23472694665786
             0.6401217    0.81375731841339
 s    1 1.00
             0.1612778                   1

24 0
 s    3 1.00
             18.731137    0.03349459952309
             2.8253937    0.23472694665786
             0.6401217    0.81375731841339
 s    1 1.00
             0.1612778                   1

[5d]
[7f]
[9g]

[MO]
 Sym= A
 Ene=               0
 Spin= Alpha
 Occup=    1.00000
   1                     0
   2                     0
   3                     0
   4                     0
   5                     0
   6    0.0042982724708604
   7                     0
   8                     0
   9    -0.006538590779993
  10                     0
  11                     0
  12                     0
  13                     0
  14                     0
  15    0.0010519002123438
  16                     0
  17                     0
  18    0.0012584542376922
  19                     0
  20                     0
  21                     0
  22                     0
  23                     0
  24                     0
  25                     0
  26                     0
  27                     0
  28    -0.001760171729518
  29                     0
  30                     0
  31     0.002401109995287
  32                     0
  33                     0
  34                     0
  35                     0
  36                     0
  37     -0.00508482927768
  38                     0
  39                     0
  40    -0.00033532097495904
  41                     0
  42                     0
  43                     0
  44                     0
  45                     0
  46    0.0027076133332003
  47                     0
  48                     0
  49    0.0033673408382343
  50                     0
  51                     0
  52                     0
  53                     0
  54                     0
  55    -0.016172964789011
  56                     0
  57                     0
  58    0.00073338740382288
  59                     0
  60                     0
  61                     0
  62                     0
  63                     0
  64                     0
  65                     0
  66                     0
  67                     0
  68    -0.018116406367508
  69                     0
  70                     0
  71    -0.0032531771467023
  72                     0
  73                     0
  74                     0
  75                     0
  76                     0
  77      0.10288148477822
  78                     0
  79                     0
  80      0.10662129114681
  81                     0
  82                     0
  83                     0
  84                     0
  85                     0
  86     0.090792469619112
  87                     0
  88                     0
  89      0.12167537851036
  90                     0
  91                     0
  92                     0
  93                     0
  94                     0
  95     -0.70214701561749
  96                     0
  97                     0
  98     -0.59259524055666
  99                     0
 100                     0
 101                     0
 102                     0
 103                     0
 104                     0
 105                     0
 106                     0
 107                     0
 108    -0.010263934014458
 109                     0
 110                     0
 111     -0.01356197100488
 112                     0
 113                     0
 114                     0
 115                     0
 116                     0
 117     0.086596977263872
 118                     0
 119                     0
 120      0.11286402002816
 121                     0
 122                     0
 123                     0
 124                     0
 125                     0
 126    0.0011316337468292
 127                     0
 128                     0
 129     0.007131243068953
 130                     0
 131                     0
 132                     0
 133                     0
 134                     0
 135    -0.025444646083868
 136                     0
 137                     0
 138      0.00623672703862
 139                     0
 140                     0
 141                     0
 142                     0
 143                     0
 144                     0
 145                     0
 146                     0
 Sym= A
 Ene=               1
 Spin= Alpha
 Occup=    1.00000
   1                     0
   2                     0
   3                     0
   4                     0
   5                     0
   6    0.00035165033124884
   7                     0
   8                     0
   9    -0.00033656933756732
  10                     0
  11                     0
  12                     0
  13                     0
  14                     0
  15    -0.0019594048458544
  16                     0
  17                     0
  18    0.0025900530866479
  19                     0
  20                     0
  21                     0
  22                     0
  23                     0
  24                     0
  25                     0
  26                     0
  27                     0
  28    0.0012874800617957
  29                     0
  30                     0
  31    -0.0024834529357912
  32                     0
  33                     0
  34                     0
  35                     0
  36                     0
  37    0.00051283798680586
  38                     0
  39                     0
  40    0.00035377819907256
  41                     0
  42                     0
  43                     0
  44                     0
  45                     0
  46    -0.00048115012680674
  47                     0
  48                     0
  49    0.0034574789930109
  50                     0
  51                     0
  52                     0
  53                     0
  54                     0
  55    0.0037845710334449
  56                     0
  57                     0
  58    -0.0062077137791319
  59                     0
  60                     0
  61                     0
  62                     0
  63                     0
  64                     0
  65                     0
  66                     0
  67                     0
  68    -0.0059695342021041
  69                     0
  70                     0
  71    0.0018285602698999
  72                     0
  73                     0
  74                     0
  75                     0
  76                     0
  77    -0.0002744048538878
  78                     0
  79                     0
  80    -0.00025426965887279
  81                     0
  82                     0
  83                     0
  84                     0
  85                     0
  86    -0.011025109495576
  87                     0
  88                     0
  89    -0.0024743362566704
  90                     0
  91                     0
  92                     0
  93                     0
  94                     0
  95    0.0020590487156715
  96                     0
  97                     0
  98    0.0036029792074768
  99                     0
 100                     0
 101                     0
 102                     0
 103                     0
 104                     0
 105                     0
 106                     0
 107                     0
 108      0.11420503339694
 109                     0
 110                     0
 111     0.094768773141231
 112                     0
 113                     0
 114                     0
 115                     0
 116                     0
 117    -0.023268541638463
 118                     0
 119                     0
 120     0.005162441139053
 121                     0
 122                     0
 123                     0
 124                     0
 125                     0
 126     -0.69082886847589
 127                     0
 128                     0
 129     -0.54081261874565
 130                     0
 131                     0
 132                     0
 133                     0
 134                     0
 135      0.08528933647844
 136                     0
 137                     0
 138      0.10817447802654
 139                     0
 140                     0
 141                     0
 142                     0
 143                     0
 144                     0
 145                     0
 146                     0
 Sym= A
 Ene=               2
 Spin= Alpha
 Occup=    1.00000
   1                     0
   2                     0
   3                     0
   4                     0
   5                     0
   6      0.69082886857175
   7                     0
   8                     0
   9      0.54081261885664
  10                     0
  11                     0
  12                     0
  13                     0
  14                     0
  15    -0.085289335883808
  16                     0
  17                     0
  18     -0.10817447751254
  19                     0
  20                     0
  21                     0
  22                     0
  23                     0
  24                     0
  25                     0
  26                     0
  27                     0
  28     -0.11420503462121
  29                     0
  30                     0
  31    -0.094768774020222
  32                     0
  33                     0
  34                     0
  35                     0
  36                     0
  37     0.023268541974557
  38                     0
  39                     0
  40    -0.005162440830124
  41                     0
  42                     0
  43                     0
  44                     0
  45                     0
  46     0.011025108049293
  47                     0
  48                     0
  49    0.0024743351936866
  50                     0
  51                     0
  52                     0
  53                     0
  54                     0
  55    -0.0020590491030473
  56                     0
  57                     0
  58    -0.0036029794604288
  59                     0
  60                     0
  61                     0
  62                     0
  63                     0
  64                     0
  65                     0
  66                     0
  67                     0
  68     0.005969534208631
  69                     0
  70                     0
  71    -0.0018285601688665
  72                     0
  73                     0
  74                     0
  75                     0
  76                     0
  77    0.0002744048113048
  78                     0
  79                     0
  80    0.00025426965122029
  81                     0
  82                     0
  83                     0
  84                     0
  85                     0
  86    0.00048115024736278
  87                     0
  88                     0
  89    -0.0034574788284053
  90                     0
  91                     0
  92                     0
  93                     0
  94                     0
  95    -0.0037845710038961
  96                     0
  97                     0
  98    0.0062077138026271
  99                     0
 100                     0
 101                     0
 102                     0
 103                     0
 104                     0
 105                     0
 106                     0
 107                     0
 108    -0.0012874801244045
 109                     0
 110                     0
 111    0.0024834528887404
 112                     0
 113                     0
 114                     0
 115                     0
 116                     0
 117    -0.00051283800601831
 118                     0
 119                     0
 120    -0.00035377819741395
 121                     0
 122                     0
 123                     0
 124                     0
 125                     0
 126    -0.00035165030738252
 127                     0
 128                     0
 129    0.00033656933286755
 130                     0
 131                     0
 132                     0
 133                     0
 134                     0
 135    0.0019594048320388
 136                     0
 137                     0
 138    -0.0025900531148509
 139                     0
 140                     0
 141                     0
 142                     0
 143                     0
 144                     0
 145                     0
 146                     0
 Sym= A
 Ene=               3
 Spin= Alpha
 Occup=    1.00000
   1                     0
   2                     0
   3                     0
   4                     0
   5                     0
   6    -0.0040639624289059
   7                     0
   8                     0
   9    0.0035973708006242
  10                     0
  11                     0
  12                     0
  13                     0
  14                     0
  15      0.00294316492875
  16                     0
  17                     0
  18    -0.0066835385250772
  19                     0
  20                     0
  21                     0
  22                     0
  23                     0
  24                     0
  25                     0
  26                     0
  27                     0
  28    -0.011957729993486
  29                     0
  30                     0
  31    -0.007092209368214
  32                     0
  33                     0
  34                     0
  35                     0
  36                     0
  37    -0.0005955590836528
  38                     0
  39                     0
  40    -0.00045412087570643
  41                     0
  42                     0
  43                     0
  44                     0
  45                     0
  46     0.094127891390638
  47                     0
  48                     0
  49      0.12421676075631
  50                     0
  51                     0
  52                     0
  53                     0
  54                     0
  55    -0.015121977068811
  56                     0
  57                     0
  58    -0.009107732917866
  59                     0
  60                     0
  61                     0
  62                     0
  63                     0
  64                     0
  65                     0
  66                     0
  67                     0
  68     -0.69407548191472
  69                     0
  70                     0
  71     -0.55162265880035
  72                     0
  73                     0
  74                     0
  75                     0
  76                     0
  77    -0.0034015685752901
  78                     0
  79                     0
  80     0.015735863502272
  81                     0
  82                     0
  83                     0
  84                     0
  85                     0
  86     0.094127887305878
  87                     0
  88                     0
  89      0.12421675675049
  90                     0
  91                     0
  92                     0
  93                     0
  94                     0
  95    -0.015121968840631
  96                     0
  97                     0
  98    -0.0091077255869518
  99                     0
 100                     0
 101                     0
 102                     0
 103                     0
 104                     0
 105                     0
 106                     0
 107                     0
 108    -0.011957729516547
 109                     0
 110                     0
 111    -0.0070922086861164
 112                     0
 113                     0
 114                     0
 115                     0
 116                     0
 117    -0.00059556045489331
 118                     0
 119                     0
 120    -0.00045412246098525
 121                     0
 122                     0
 123                     0
 124                     0
 125                     0
 126    -0.0040639623037221
 127                     0
 128                     0
 129    0.0035973708507651
 130                     0
 131                     0
 132                     0
 133                     0
 134                     0
 135     0.002943164904353
 136                     0
 137                     0
 138    -0.0066835387683284
 139                     0
 140                     0
 141                     0
 142                     0
 143                     0
 144                     0
 145                     0
 146                     0
 Sym= A
 Ene=               4
 Spin= Alpha
 Occup=    1.00000
   1                     0
   2                     0
   3                     0
   4                     0
   5                     0
   6     0.013660051995738
   7                     0
   8                     0
   9    0.0033515825143095
  10                     0
  11                     0
  12                     0
  13                     0
  14                     0
  15     -0.11389646522714
  16                     0
  17                     0
  18    -0.095301721277344
  19                     0
  20                     0
  21                     0