 &FCI NORB=  20,NELEC=20,MS2=0,
  ORBSYM=1,1,1,1,1,1,1,1,1,1,1,1,1,1,1,1,1,1,1,1,
  ISYM=1,
 &END
 0.461971084315045    1    1    1    1
 -8.246883096533586e-06    1    1    2    1
 0.0673465418782698    1    1    2    2
 -7.29680183634668e-05    1    1    3    1
 3.076967812881734e-06    1    1    3    2
 0.07867035652901359    1    1    3    3
 0.0006917963896909638    1    1    4    1
 -3.003348244146272e-05    1    1    4    2
 1.386684622418191e-05    1    1    4    3
 0.2565889534237506    1    1    4    4
 3.5779208364268e-05    1    1    5    1
 -1.164892365385637e-06    1    1    5    2
 -2.405856503415684e-05    1    1    5    3
 1.147061273148999e-05    1    1    5    4
 0.05793975419816966    1    1    5    5
 0.0001530772369123113    1    1    6    1
 3.311838913766989e-06    1    1    6    2
 0.0002465256235817717    1    1    6    3
 0.0002943225160800002    1    1    6    4
 -5.928537766851598e-05    1    1    6    5
 0.0970149078675337    1    1    6    6
 -2.959633470043968e-06    1    1    7    1
 3.129503363151687e-06    1    1    7    2
 9.272700105368459e-07    1    1    7    3
 -7.230412262156234e-06    1    1    7    4
 -3.532961441038361e-07    1    1    7    5
 7.692975696801246e-07    1    1    7    6
 0.04163816656870001    1    1    7    7
 -9.607821874159334e-06    1    1    8    1
 -9.128615230773911e-07    1    1    8    2
 1.627405865897737e-05    1    1    8    3
 -1.573137570090398e-06    1    1    8    4
 -6.844953855696807e-05    1    1    8    5
 -7.51060668323753e-06    1    1    8    6
 -3.351784359437273e-07    1    1    8    7
 0.05139301162512913    1    1    8    8
 -1.839130811538319e-05    1    1    9    1
 -1.927976005525018e-06    1    1    9    2
 0.0001377038543264877    1    1    9    3
 -2.436035039852401e-05    1    1    9    4
 9.02189851312724e-05    1    1    9    5
 -4.46978929701616e-05    1    1    9    6
 -5.042937163448151e-07    1    1    9    7
 1.719729118651553e-05    1    1    9    8
 0.06734818161729232    1    1    9    9
 -0.000418601363112538    1    1   10    1
 2.884461183849585e-05    1    1   10    2
 1.391321521162024e-05    1    1   10    3
 -8.434093099884309e-05    1    1   10    4
 -5.116977743925199e-06    1    1   10    5
 1.781307361697319e-05    1    1   10    6
 1.45933364362612e-05    1    1   10    7
 -4.14294682631862e-06    1    1   10    8
 -8.874637600247305e-06    1    1   10    9
 0.1720944366775162    1    1   10   10
 -6.162807980267038e-06    1    1   11    1
 0.0001229502367908839    1    1   11    2
 0.0002145905018802892    1    1   11    3
 -0.002974488215058987    1    1   11    4
 -6.665640352857472e-05    1    1   11    5
 0.0002310013707587822    1    1   11    6
 3.495022227416572e-05    1    1   11    7
 -7.64703450420324e-05    1    1   11    8
 -0.000130227121758988    1    1   11    9
 0.000409723746113351    1    1   11   10
 0.4716139455548253    1    1   11   11
 6.184468422125817e-05    1    1   12    1
 -0.0001374302855305129    1    1   12    2
 4.134881342685258e-06    1    1   12    3
 -2.839584687190737e-05    1    1   12    4
 -1.216523010080443e-06    1    1   12    5
 6.284107734088645e-06    1    1   12    6
 1.939880040891176e-06    1    1   12    7
 -1.67376629389828e-06    1    1   12    8
 -2.787048752269438e-06    1    1   12    9
 0.0002127752664292858    1    1   12   10
 0.0002224928081024293    1    1   12   11
 0.07867987330630227    1    1   12   12
 4.199948784995671e-05    1    1   13    1
 9.074037449941678e-05    1    1   13    2
 1.467574330235839e-06    1    1   13    3
 -6.499941829729211e-06    1    1   13    4
 -5.596522015468855e-07    1    1   13    5
 2.263791947483705e-06    1    1   13    6
 -7.651767514262823e-06    1    1   13    7
 -7.825767957764047e-07    1    1   13    8
 -1.488509330286915e-06    1    1   13    9
 4.36776540005906e-05    1    1   13   10
 7.432053032127005e-05    1    1   13   11
 2.369961408478857e-05    1    1   13   12
 0.05795839476924471    1    1   13   13
 -1.449029905856138e-05    1    1   14    1
 -2.444826324660229e-05    1    1   14    2
 -5.657082810682964e-07    1    1   14    3
 6.471259400653871e-06    1    1   14    4
 2.835728543679125e-07    1    1   14    5
 -8.401190942398715e-07    1    1   14    6
 3.65055722087726e-05    1    1   14    7
 2.820584968259147e-07    1    1   14    8
 4.827185827441899e-07    1    1   14    9
 -1.497969091961817e-05    1    1   14   10
 -4.136840882454507e-05    1    1   14   11
 -2.767634650868136e-06    1    1   14   12
 -1.109981888642432e-05    1    1   14   13
 0.04584495166832305    1    1   14   14
 0.000439767289130457    1    1   15    1
 -9.842358037636429e-06    1    1   15    2
 -6.504938924016266e-05    1    1   15    3
 0.0001549245388099815    1    1   15    4
 5.86152526397741e-06    1    1   15    5
 0.000437944401373171    1    1   15    6
 -2.879970132337499e-06    1    1   15    7
 3.877601397274594e-06    1    1   15    8
 -4.922850086475594e-05    1    1   15    9
 -3.431855173018957e-05    1    1   15   10
 -0.0008330639206837611    1    1   15   11
 -1.060190355430829e-05    1    1   15   12
 -4.965448740789203e-06    1    1   15   13
 1.125366902829694e-06    1    1   15   14
 0.1219636434572822    1    1   15   15
 0.0006756743398364769    1    1   16    1
 -2.828113478036373e-05    1    1   16    2
 2.568087897420595e-05    1    1   16    3
 -0.0009233057569691863    1    1   16    4
 -7.0729852745352e-06    1    1   16    5
 6.322502804012672e-05    1    1   16    6
 -2.131094848800784e-06    1    1   16    7
 -1.737306872819653e-05    1    1   16    8
 -3.29559237117005e-05    1    1   16    9
 -0.002368174199553422    1    1   16   10
 0.002963912445730407    1    1   16   11
 -1.201212949871686e-05    1    1   16   12
 1.012960251465106e-05    1    1   16   13
 -1.161647616760773e-05    1    1   16   14
 -0.0001076945765772248    1    1   16   15
 0.2565823061583193    1    1   16   16
 1.434928110382823e-05    1    1   17    1
 -1.794686259391279e-05    1    1   17    2
 -1.849795058322335e-06    1    1   17    3
 1.921206085689243e-05    1    1   17    4
 6.725930557823959e-07    1    1   17    5
 -1.842424984531622e-06    1    1   17    6
 -8.501981484351426e-06    1    1   17    7
 4.575442466109887e-07    1    1   17    8
 7.437800891055791e-07    1    1   17    9
 -2.452530736217086e-05    1    1   17   10
 -7.8719650551537e-05    1    1   17   11
 1.676495601617218e-05    1    1   17   12
 5.950597710570388e-05    1    1   17   13
 4.234831688707747e-05    1    1   17   14
 4.301302677297777e-06    1    1   17   15
 1.522036723422825e-06    1    1   17   16
 0.05154297505586362    1    1   17   17
 0.0004189354487488593    1    1   18    1
 9.006940930066738e-06    1    1   18    2
 0.00021332077614666    1    1   18    3
 0.002372676222821445    1    1   18    4
 -4.156615277076582e-05    1    1   18    5
 0.000155194606106292    1    1   18    6
 2.249446033495847e-06    1    1   18    7
 -2.298663359923777e-05    1    1   18    8
 -2.939291271259294e-05    1    1   18    9
 2.432955522322011e-05    1    1   18   10
 0.0003904772251567519    1    1   18   11
 1.501124070692487e-05    1    1   18   12
 6.043051587913168e-06    1    1   18   13
 -1.339129154118539e-06    1    1   18   14
 -0.00107769219609935    1    1   18   15
 8.490314605352082e-05    1    1   18   16
 -3.885771144662161e-06    1    1   18   17
 0.1721027534380115    1    1   18   18
 -0.0001604270613416269    1    1   19    1
 4.406856607135099e-05    1    1   19    2
 5.940053454619201e-06    1    1   19    3
 -6.373563055710689e-05    1    1   19    4
 -1.951571087724977e-06    1    1   19    5
 5.69817232482509e-06    1    1   19    6
 7.145939712276877e-06    1    1   19    7
 -1.470255403919872e-06    1    1   19    8
 -2.822995386100319e-06    1    1   19    9
 0.0001538551599699171    1    1   19   10
 0.0002177037814405967    1    1   19   11
 0.0002483233806643128    1    1   19   12
 5.971216559569698e-05    1    1   19   13
 -1.27039136994499e-05    1    1   19   14
 -1.862225852724825e-05    1    1   19   15
 -0.0002910530682615039    1    1   19   16
 -8.832348557894988e-06    1    1   19   17
 1.845584924624854e-05    1    1   19   18
 0.0970118697510314    1    1   19   19
 0.0004381973837372552    1    1   20    1
 -5.026709124042071e-05    1    1   20    2
 1.071128185516838e-05    1    1   20    3
 -0.000108858577978755    1    1   20    4
 -4.214781047683806e-06    1    1   20    5
 1.945374347495934e-05    1    1   20    6
 4.15010580677835e-06    1    1   20    7
 -4.887725089238027e-06    1    1   20    8
 -9.87068421584182e-06    1    1   20    9
 0.001080721250156039    1    1   20   10
 0.0008573301206989743    1    1   20   11
 6.344766012954078e-05    1    1   20   12
 6.25061299373407e-06    1    1   20   13
 -6.815324740267534e-06    1    1   20   14
 -3.028372571003735e-05    1    1   20   15
 0.0001506690681476853    1    1   20   16
 -2.823977155247124e-06    1    1   20   17
 3.477731102383488e-05    1    1   20   18
 -0.0004398529369198628    1    1   20   19
 0.1219702550875352    1    1   20   20
 -8.246883096533302e-06    2    1    1    1
 4.692365888535232e-07    2    1    2    1
 -0.0002582128277799235    2    1    2    2
 1.232402599774304e-07    2    1    3    1
 -9.783399001827821e-09    2    1    3    2
 4.475644533755556e-06    2    1    3    3
 -4.932124592293978e-06    2    1    4    1
 1.528500602676883e-07    2    1    4    2
 -1.328780614030582e-09    2    1    4    3
 1.908092294816721e-05    2    1    4    4
 -4.425217933074139e-08    2    1    5    1
 -7.846267194710352e-09    2    1    5    2
 -1.496723921778899e-09    2    1    5    3
 9.361557511765528e-10    2    1    5    4
 2.247268635873697e-06    2    1    5    5
 1.259138780334251e-07    2    1    6    1
 -9.127719098470547e-08    2    1    6    2
 3.604985892799072e-08    2    1    6    3
 -4.953333394269471e-09    2    1    6    4
 -9.616211857250063e-09    2    1    6    5
 6.755398944397873e-06    2    1    6    6
 2.807103197163827e-08    2    1    7    1
 -1.010202011280379e-07    2    1    7    2
 7.066181024700227e-12    2    1    7    3
 1.234381603641836e-09    2    1    7    4
 5.604808012122121e-12    2    1    7    5
 5.016241188184948e-11    2    1    7    6
 7.167241623774963e-06    2    1    7    7
 -4.32118297803787e-08    2    1    8    1
 2.764513429675473e-08    2    1    8    2
 3.359253852163727e-09    2    1    8    3
 1.65779899388527e-09    2    1    8    4
 -1.239029269948927e-08    2    1    8    5
 -9.29027403025123e-10    2    1    8    6
 -4.272835677117595e-11    2    1    8    7
 1.646367063091245e-06    2    1    8    8
 -8.099365634713218e-08    2    1    9    1
 4.796341450702448e-08    2    1    9    2
 3.553973839536278e-08    2    1    9    3
 3.172961022715302e-09    2    1    9    4
 1.307288461664456e-08    2    1    9    5
 -7.676155769713606e-09    2    1    9    6
 1.675916742104464e-11    2    1    9    7
 2.713706612802218e-09    2    1    9    8
 3.175237816864867e-06    2    1    9    9
 3.888053588516401e-07    2    1   10    1
 8.2013777239341e-07    2    1   10    2
 -2.01299259950516e-09    2    1   10    3
 3.792830614941977e-08    2    1   10    4
 1.260345459856707e-09    2    1   10    5
 -6.236171030699149e-09    2    1   10    6
 -3.215812471447583e-09    2    1   10    7
 1.64043783887033e-09    2    1   10    8
 3.97344405431984e-09    2    1   10    9
 -4.614901795963192e-05    2    1   10   10
 5.00214543946518e-05    2    1   11    1
 -7.429637412332106e-08    2    1   11    2
 -4.23269196684896e-08    2    1   11    3
 3.21872654035863e-06    2    1   11    4
 2.03406464454944e-08    2    1   11    5
 7.498841942500864e-08    2    1   11    6
 -6.057265503304227e-09    2    1   11    7
 -5.255922199319179e-09    2    1   11    8
 -3.71872529648139e-09    2    1   11    9
 -3.873306040723581e-07    2    1   11   10
 -1.774015054039067e-05    2    1   11   11
 4.572295978983462e-08    2    1   12    1
 2.08219988362136e-05    2    1   12    2
 -5.065054855874622e-09    2    1   12    3
 -4.072181160732953e-08    2    1   12    4
 -6.089750877636968e-09    2    1   12    5
 6.068418993679685e-09    2    1   12    6
 1.052365128088908e-07    2    1   12    7
 -2.436520092469521e-10    2    1   12    8
 -1.694867339123221e-08    2    1   12    9
 -4.657087797468572e-07    2    1   12   10
 -1.071544760927881e-08    2    1   12   11
 -9.251735674231175e-05    2    1   12   12
 7.090974609735446e-08    2    1   13    1
 -1.361629109889847e-05    2    1   13    2
 1.032555259088065e-09    2    1   13    3
 9.974277991516371e-09    2    1   13    4
 9.108026413812369e-11    2    1   13    5
 -3.822118586419938e-09    2    1   13    6
 1.143140502119326e-07    2    1   13    7
 1.451417225971068e-09    2    1   13    8
 4.131150711765148e-09    2    1   13    9
 3.322440246959441e-08    2    1   13   10
 1.179483375913612e-08    2    1   13   11
 1.140601358647437e-06    2    1   13   12
 -7.008220006782467e-06    2    1   13   13
 -2.741672820845924e-08    2    1   14    1
 1.616817255824118e-06    2    1   14    2
 1.111310393914734e-10    2    1   14    3
 -2.334344418430195e-09    2    1   14    4
 4.035683108024411e-11    2    1   14    5
 5.231197535547006e-10    2    1   14    6
 9.553786595571257e-08    2    1   14    7
 -1.625505841727955e-10    2    1   14    8
 -2.448023997201401e-10    2    1   14    9
 -1.939114308646397e-11    2    1   14   10
 -1.357138393349819e-09    2    1   14   11
 -2.073406289985319e-07    2    1   14   12
 -9.338822125944263e-08    2    1   14   13
 9.870656276080829e-06    2    1   14   14
 -5.019576121316921e-07    2    1   15    1
 2.234050179439976e-08    2    1   15    2
 -3.802234832416357e-09    2    1   15    3
 5.079557738195705e-09    2    1   15    4
 -3.259121582196752e-10    2    1   15    5
 9.967151902212211e-08    2    1   15    6
 1.399362155392648e-10    2    1   15    7
 -2.913581687065865e-10    2    1   15    8
 -1.022774037911742e-08    2    1   15    9
 7.700104202489664e-09    2    1   15   10
 2.855224287780527e-07    2    1   15   11
 -2.035114223736844e-08    2    1   15   12
 2.502345436097043e-09    2    1   15   13
 -2.90814971101487e-10    2    1   15   14
 9.984238489542479e-06    2    1   15   15
 5.802791686984046e-06    2    1   16    1
 6.00228631981817e-07    2    1   16    2
 1.381601160721721e-08    2    1   16    3
 -1.217491171584707e-07    2    1   16    4
 -6.096001552645283e-09    2    1   16    5
 1.288351525156816e-08    2    1   16    6
 9.147088338757313e-09    2    1   16    7
 -3.210887107776922e-09    2    1   16    8
 -6.387310294247626e-09    2    1   16    9
 1.33684046754738e-06    2    1   16   10
 3.351661404258463e-06    2    1   16   11
 -1.588979432676862e-08    2    1   16   12
 4.472377220055156e-08    2    1   16   13
 -4.029520666317168e-09    2    1   16   14
 -3.458561487410078e-08    2    1   16   15
 -7.195132852465019e-05    2    1   16   16
 -5.808869133471084e-08    2    1   17    1
 -2.831044169957286e-08    2    1   17    2
 4.978112623135752e-11    2    1   17    3
 -3.388549402169809e-09    2    1   17    4
 -1.549277909017328e-10    2    1   17    5
 -2.818449459966417e-10    2    1   17    6
 1.345221499190935e-08    2    1   17    7
 9.208060786864201e-11    2    1   17    8
 -2.348220904783749e-11    2    1   17    9
 4.758750963804818e-09    2    1   17   10
 1.775673770172151e-08    2    1   17   11
 -3.534081637902771e-07    2    1   17   12
 -1.932841506180245e-06    2    1   17   13
 -2.130168829983785e-07    2    1   17   14
 -5.283891067938437e-10    2    1   17   15
 -1.373390909749066e-08    2    1   17   16
 1.299756714777445e-05    2    1   17   17
 -2.137114488063782e-08    2    1   18    1
 -9.507228767961752e-08    2    1   18    2
 2.290343850082112e-08    2    1   18    3
 -9.742161578402075e-08    2    1   18    4
 -5.115291712020045e-09    2    1   18    5
 2.210097383208531e-08    2    1   18    6
 2.818580451368795e-10    2    1   18    7
 -1.80441515709607e-09    2    1   18    8
 -2.040777072432351e-09    2    1   18    9
 -1.023433230067757e-08    2    1   18   10
 4.350058615686652e-07    2    1   18   11
 2.073963660247428e-08    2    1   18   12
 -5.965052497945532e-09    2    1   18   13
 3.934008396930539e-10    2    1   18   14
 1.056068464983564e-08    2    1   18   15
 1.06554241418279e-08    2    1   18   16
 -5.375329836760017e-10    2    1   18   17
 1.586557816381381e-05    2    1   18   18
 1.804219893153702e-07    2    1   19    1
 4.60017348923314e-06    2    1   19    2
 -2.389037931323593e-10    2    1   19    3
 5.489897392065049e-09    2    1   19    4
 -3.048978094844347e-10    2    1   19    5
 -1.195106573537253e-09    2    1   19    6
 9.307554164738405e-09    2    1   19    7
 3.841232670532444e-10    2    1   19    8
 -2.976119617506212e-10    2    1   19    9
 4.600852058082795e-08    2    1   19   10
 -1.078730193587466e-07    2    1   19   11
 -1.802097352284437e-06    2    1   19   12
 3.430482584002433e-07    2    1   19   13
 -2.393204037176907e-08    2    1   19   14
 -1.602906031775308e-09    2    1   19   15
 2.305654710601962e-07    2    1   19   16
 -1.519890999041898e-08    2    1   19   17
 9.020613709036618e-10    2    1   19   18
 -4.286768362668443e-05    2    1   19   19
 6.193508527895835e-07    2    1   20    1
 1.840874185538059e-06    2    1   20    2
 2.303136148977192e-09    2    1   20    3
 7.576068844749674e-09    2    1   20    4
 5.771883901911653e-10    2    1   20    5
 9.658748235576073e-10    2    1   20    6
 4.131662867505837e-09    2    1   20    7
 -6.134390859119295e-10    2    1   20    8
 7.581030108893955e-10    2    1   20    9
 -4.496916755980686e-07    2    1   20   10
 2.512388144736082e-07    2    1   20   11
 -3.390430128749116e-07    2    1   20   12
 9.363615609582235e-08    2    1   20   13
 -9.574633725019759e-09    2    1   20   14
 -2.372981954992016e-09    2    1   20   15
 1.487677590113982e-07    2    1   20   16
 -7.672426163842461e-09    2    1   20   17
 2.568413442667817e-09    2    1   20   18
 1.994663048045982e-06    2    1   20   19
 -3.901477300038309e-05    2    1   20   20
 0.06734654187826983    2    2    1    1
 -0.0002582128277799237    2    2    2    1
 0.6235101880930235    2    2    2    2
 -5.146402874758889e-06    2    2    3    1
 4.989378667838351e-06    2    2    3    2
 0.03642487959783244    2    2    3    3
 3.987946870023447e-05    2    2    4    1
 -9.575761073761205e-05    2    2    4    2
 -1.017364684750459e-06    2    2    4    3
 0.05452367044105473    2    2    4    4
 2.416133555969204e-06    2    2    5    1
 9.413333038302022e-06    2    2    5    2
 -2.219500253771138e-06    2    2    5    3
 1.285531101860091e-06    2    2    5    4
 0.03123059291717304    2    2    5    5
 -2.844991630504302e-06    2    2    6    1
 6.888325462078104e-05    2    2    6    2
 1.929895693496022e-05    2    2    6    3
 6.861518207808004e-06    2    2    6    4
 -6.143417647100017e-06    2    2    6    5
 0.03985024466042572    2    2    6    6
 -6.925642806221059e-06    2    2    7    1
 -9.667151437054615e-06    2    2    7    2
 8.182516142377243e-07    2    2    7    3
 -2.882832090418551e-06    2    2    7    4
 -1.154544275051094e-07    2    2    7    5
 1.549564124644396e-06    2    2    7    6
 0.1071682603999893    2    2    7    7
 1.89577971737609e-06    2    2    8    1
 -2.059553702151615e-05    2    2    8    2
 2.324210909472151e-06    2    2    8    3
 8.336102380840855e-07    2    2    8    4
 -1.3240833587396e-05    2    2    8    5
 -8.249150799091921e-07    2    2    8    6
 -5.141811732807594e-07    2    2    8    7
 0.02918860369339542    2    2    8    8
 3.078248255606052e-06    2    2    9    1
 -3.196482127815699e-05    2    2    9    2
 1.676293591136284e-05    2    2    9    3
 7.133222324426004e-07    2    2    9    4
 1.181263224923348e-05    2    2    9    5
 -5.46303968711943e-06    2    2    9    6
 -3.199901014754513e-07    2    2    9    7
 3.408546895350799e-06    2    2    9    8
 0.03373045859032157    2    2    9    9
 1.500592074502099e-05    2    2   10    1
 -0.0005898785182397003    2    2   10    2
 -3.847055973829953e-06    2    2   10    3
 4.383482271602313e-06    2    2   10    4
 1.686745006425999e-06    2    2   10    5
 -3.730823579164093e-06    2    2   10    6
 -1.565839524832323e-05    2    2   10    7
 1.287018974249978e-06    2    2   10    8
 1.83577164835742e-06    2    2   10    9
 0.1078132436926615    2    2   10   10
 0.005015910752920108    2    2   11    1
 6.411816436534235e-05    2    2   11    2
 1.582387863953429e-06    2    2   11    3
 -5.768131190035653e-05    2    2   11    4
 -5.623961402731865e-08    2    2   11    5
 1.199593813056926e-06    2    2   11    6
 -7.06492155783909e-07    2    2   11    7
 -6.102775535360294e-07    2    2   11    8
 -8.247983585932292e-07    2    2   11    9
 6.845489724499199e-05    2    2   11   10
 0.06758485125394177    2    2   11   11
 0.0001499962146702312    2    2   12    1
 -0.01039362962425258    2    2   12    2
 -2.42491692078116e-08    2    2   12    3
 6.391442983167859e-05    2    2   12    4
 6.461998180607782e-06    2    2   12    5
 -1.733568363527581e-05    2    2   12    6
 -0.0001071915147593077    2    2   12    7
 3.829304483051405e-06    2    2   12    8
 2.126892865007551e-05    2    2   12    9
 0.0006511559358408688    2    2   12   10
 4.101635679689492e-05    2    2   12   11
 0.3310181167022433    2    2   12   12
 -4.516223859870249e-05    2    2   13    1
 0.003276007422908955    2    2   13    2
 -3.791816511558846e-06    2    2   13    3
 -1.922642112470999e-05    2    2   13    4
 -4.201135962900073e-07    2    2   13    5
 6.855989458972337e-06    2    2   13    6
 -0.000409309092369728    2    2   13    7
 -2.724653224843939e-06    2    2   13    8
 -9.325685505295048e-06    2    2   13    9
 -9.294621744826102e-05    2    2   13   10
 2.040749227518375e-05    2    2   13   11
 -0.0004078158776655242    2    2   13   12
 0.3120070679550234    2    2   13   13
 1.65960088045397e-05    2    2   14    1
 -0.001213517659909151    2    2   14    2
 -9.000941221810509e-07    2    2   14    3
 5.500342274164806e-06    2    2   14    4
 3.677497868358435e-07    2    2   14    5
 -3.452362815764498e-06    2    2   14    6
 0.0005715364595524283    2    2   14    7
 8.883519156722045e-07    2    2   14    8
 1.957440226607871e-06    2    2   14    9
 3.021929691760346e-05    2    2   14   10
 5.787697245922024e-07    2    2   14   11
 0.0001106858843003574    2    2   14   12
 -0.0003240337488799492    2    2   14   13
 0.1370482223776943    2    2   14   14
 1.508498442033111e-05    2    2   15    1
 -3.794737306640669e-06    2    2   15    2
 -3.519825625398414e-06    2    2   15    3
 6.179768327104633e-06    2    2   15    4
 6.03718622153012e-07    2    2   15    5
 2.815810490154882e-05    2    2   15    6
 2.718080502146007e-08    2    2   15    7
 4.635617993739268e-07    2    2   15    8
 -3.780730052547145e-06    2    2   15    9
 5.569780941807974e-06    2    2   15   10
 -1.313586683574922e-05    2    2   15   11
 2.839683222685194e-05    2    2   15   12
 -4.504966660710017e-06    2    2   15   13
 1.783234761283229e-06    2    2   15   14
 0.04367897148049714    2    2   15   15
 0.0001714972672157815    2    2   16    1
 -0.0004387303532851857    2    2   16    2
 -3.93716516325506e-06    2    2   16    3
 4.472851694712096e-05    2    2   16    4
 1.896232665126365e-06    2    2   16    5
 -5.81653099903096e-06    2    2   16    6
 -7.018600744208807e-06    2    2   16    7
 2.080341784896112e-06    2    2   16    8
 3.756395709967815e-06    2    2   16    9
 -0.0003587942005638381    2    2   16   10
 6.087076061487332e-05    2    2   16   11
 8.981432784560536e-05    2    2   16   12
 -7.414797612549164e-05    2    2   16   13
 2.269051732842054e-05    2    2   16   14
 1.040159713936215e-05    2    2   16   15
 0.08693145151548946    2    2   16   16
 2.207747606064809e-05    2    2   17    1
 0.0004853468917189339    2    2   17    2
 -3.115259163953402e-06    2    2   17    3
 8.5270830847498e-06    2    2   17    4
 -2.94859777189672e-07    2    2   17    5
 -6.128343057603751e-06    2    2   17    6
 -0.0001540330844988615    2    2   17    7
 1.651969275452878e-06    2    2   17    8
 7.205287117715962e-07    2    2   17    9
 3.579737486488616e-05    2    2   17   10
 2.014873649797019e-06    2    2   17   11
 -0.0001430685892409278    2    2   17   12
 0.002759725644262921    2    2   17   13
 0.001753092389773419    2    2   17   14
 -4.237656345327506e-07    2    2   17   15
 2.837524171172296e-05    2    2   17   16
 0.2066168870562434    2    2   17   17
 5.11809939556462e-06    2    2   18    1
 6.62926298561332e-05    2    2   18    2
 1.055244728080693e-05    2    2   18    3
 5.338499887250276e-05    2    2   18    4
 -2.485394042394263e-06    2    2   18    5
 9.483341721683067e-06    2    2   18    6
 1.037695317629639e-06    2    2   18    7
 -1.369804210819262e-06    2    2   18    8
 -1.667019499620037e-06    2    2   18    9
 -2.245839430848664e-06    2    2   18   10
 1.47797530264246e-05    2    2   18   11
 -3.632008306770235e-05    2    2   18   12
 1.298045470335288e-05    2    2   18   13
 -5.219750005392372e-06    2    2   18   14
 -3.431444233785976e-05    2    2   18   15
 -6.855941654150462e-06    2    2   18   16
 -4.208537437364288e-06    2    2   18   17
 0.04866738275767733    2    2   18   18
 -3.889061625622442e-06    2    2   19    1
 -0.002973683034757083    2    2   19    2
 -3.267251790507642e-06    2    2   19    3
 1.588087318327147e-05    2    2   19    4
 1.783751551608668e-06    2    2   19    5
 -1.647420401446702e-06    2    2   19    6
 -5.051475452509873e-05    2    2   19    7
 5.040056064898714e-07    2    2   19    8
 2.431125999147985e-06    2    2   19    9
 3.457163509604739e-05    2    2   19   10
 8.552412305874359e-07    2    2   19   11
 0.002192856888139851    2    2   19   12
 -0.0009113981994894435    2    2   19   13
 0.0001246468541300964    2    2   19   14
 9.686198605899616e-06    2    2   19   15
 -0.000181326723299371    2    2   19   16
 8.907252657167047e-05    2    2   19   17
 -2.828601163484059e-06    2    2   19   18
 0.2065779667716695    2    2   19   19
 0.0001127988200929818    2    2   20    1
 -0.001613244371357705    2    2   20    2
 -5.984373229631052e-06    2    2   20    3
 2.936068932589428e-05    2    2   20    4
 1.77658781636774e-06    2    2   20    5
 -1.047905330968046e-05    2    2   20    6
 -1.492962282965117e-05    2    2   20    7
 3.552532727681471e-06    2    2   20    8
 5.251073717748767e-06    2    2   20    9
 0.0005455149962112497    2    2   20   10
 8.084839474662731e-05    2    2   20   11
 0.0007482009002185691    2    2   20   12
 -0.000108872739708557    2    2   20   13
 3.768814522420581e-05    2    2   20   14
 1.138677970885276e-05    2    2   20   15
 0.0001421822309815548    2    2   20   16
 3.516011657360442e-05    2    2   20   17
 -1.652474602729907e-05    2    2   20   18
 -0.00196713169129796    2    2   20   19
 0.141575007466152    2    2   20   20
 -7.296801836346653e-05    3    1    1    1
 1.232402599774304e-07    3    1    2    1
 -5.146402874758918e-06    3    1    2    2
 7.238029119354772e-07    3    1    3    1
 6.804059908547114e-08    3    1    3    2
 -0.0002668987611054999    3    1    3    3
 -7.631258634342913e-06    3    1    4    1
 2.342643110395654e-08    3    1    4    2
 2.653709493550491e-07    3    1    4    3
 8.304875701569574e-05    3    1    4    4
 -6.840551389027562e-08    3    1    5    1
 7.787397390496976e-10    3    1    5    2
 -4.231560820082961e-06    3    1    5    3
 2.123374843552774e-09    3    1    5    4
 -6.975326582420063e-05    3    1    5    5
 3.250833878475792e-07    3    1    6    1
 1.342469344575905e-08    3    1    6    2
 -1.762921810768922e-05    3    1    6    3
 1.922933912963154e-07    3    1    6    4
 -8.85856224559866e-07    3    1    6    5
 0.0001188355965510902    3    1    6    6
 3.471965256861152e-08    3    1    7    1
 -7.127132166867946e-10    3    1    7    2
 1.355016700178936e-08    3    1    7    3
 7.542628741749633e-09    3    1    7    4
 7.825088957684337e-11    3    1    7    5
 3.376043798120377e-09    3    1    7    6
 -1.682242216893218e-06    3    1    7    7
 -7.117091854826034e-08    3    1    8    1
 1.128969118847929e-09    3    1    8    2
 -1.376985183686994e-06    3    1    8    3
 -1.248574087287454e-08    3    1    8    4
 1.834969866811355e-06    3    1    8    5
 -8.407602618777211e-08    3    1    8    6
 4.610878582970734e-10    3    1    8    7
 -3.461482443165412e-05    3    1    8    8
 -3.769680540587132e-08    3    1    9    1
 1.778860329732826e-08    3    1    9    2
 -1.215803213286078e-05    3    1    9    3
 1.213156098913506e-07    3    1    9    4
 -1.148933982003217e-06    3    1    9    5
 -1.141973166570578e-06    3    1    9    6
 4.667301639877328e-09    3    1    9    7
 -4.872831601709561e-07    3    1    9    8
 -0.0001530173665836043    3    1    9    9
 3.48643202336448e-07    3    1   10    1
 -7.536595764797369e-09    3    1   10    2
 9.478582255383608e-08    3    1   10    3
 6.646705757961099e-08    3    1   10    4
 3.721886665417824e-09    3    1   10    5
 4.037033141921262e-08    3    1   10    6
 -3.632306502321731e-09    3    1   10    7
 3.882683506506726e-09    3    1   10    8
 3.107619100203924e-08    3    1   10    9
 -2.93346620520473e-05    3    1   10   10
 8.621580657783011e-05    3    1   11    1
 -5.477090542303449e-08    3    1   11    2
 -3.049333810125455e-07    3    1   11    3
 5.82093408695062e-06    3    1   11    4
 5.677083936836314e-08    3    1   11    5
 5.171659359145645e-08    3    1   11    6
 -2.177074944671602e-08    3    1   11    7