 &FCI NORB=  20,NELEC=20,MS2=0,
  ORBSYM=1,1,1,1,1,1,1,1,1,1,1,1,1,1,1,1,1,1,1,1,
  ISYM=1,
 &END
 0.1693184954840557    1    1    1    1
 0.1336523385523155    1    1    2    2
 -0.03563662614180521    1    1    3    1
 0.1323431022753362    1    1    3    3
 0.0365542797567379    1    1    4    2
 0.1311701460473113    1    1    4    4
 -0.0006061373259397848    1    1    5    1
 -0.0370636137827368    1    1    5    3
 0.1301890726521029    1    1    5    5
 0.0005867492194975503    1    1    6    2
 -0.03743235694952295    1    1    6    4
 0.1291994667332985    1    1    6    6
 -0.0001192612349492343    1    1    7    1
 -0.0004751551513714704    1    1    7    3
 -0.03773449197895569    1    1    7    5
 0.1280235209394457    1    1    7    7
 -0.0001458155658854064    1    1    8    2
 0.0002734092699922645    1    1    8    4
 0.03798861978437366    1    1    8    6
 0.1263586043471881    1    1    8    8
 4.633642128702768e-05    1    1    9    1
 0.0001112456436398786    1    1    9    3
 -4.256738487879038e-05    1    1    9    5
 0.03818755749763849    1    1    9    7
 0.1231698571493278    1    1    9    9
 -4.12887362181155e-05    1    1   10    2
 2.976687286285792e-05    1    1   10    4
 -0.0004114495720862466    1    1   10    6
 -0.03879242199455914    1    1   10    8
 0.1565210601610464    1    1   10   10
 2.102915615170611e-06    1    1   11    1
 2.164396476984204e-05    1    1   11    3
 0.000227949659841199    1    1   11    5
 0.003142799404521183    1    1   11    7
 0.02331932292499642    1    1   11    9
 0.1565519873152437    1    1   11   11
 1.625586752984241e-05    1    1   12    2
 -0.0001564035907388201    1    1   12    4
 -0.001907113712080171    1    1   12    6
 -0.008595650473993136    1    1   12    8
 -0.02307331445314108    1    1   12   10
 0.1220446891897215    1    1   12   12
 9.096589832456229e-06    1    1   13    1
 9.839980041914279e-05    1    1   13    3
 0.001095473967151247    1    1   13    5
 -0.004867826237822188    1    1   13    7
 0.007819870448884365    1    1   13    9
 -0.04075805256567759    1    1   13   11
 0.127085731081454    1    1   13   13
 6.040418436289774e-05    1    1   14    2
 -0.0006711475941785756    1    1   14    4
 0.003086535836748211    1    1   14    6
 -0.004227221469205314    1    1   14    8
 0.003937416425408606    1    1   14   10
 -0.03939516360082413    1    1   14   12
 0.1291637537465329    1    1   14   14
 -3.596886320162923e-05    1    1   15    1
 -0.0004253104126916197    1    1   15    3
 0.002097252083697583    1    1   15    5
 0.002535465928462976    1    1   15    7
 0.002459097114880696    1    1   15    9
 -0.0007848228814171481    1    1   15   11
 0.03912572717322785    1    1   15   13
 0.1302584298137652    1    1   15   15
 -0.0002573514410831014    1    1   16    2
 -0.001525221069698189    1    1   16    4
 -0.001602045970692222    1    1   16    6
 -0.001496590786202286    1    1   16    8
 -0.0002902922118237775    1    1   16   10
 -0.0006179637186677424    1    1   16   12
 0.0388048463337096    1    1   16   14
 0.1302618175779771    1    1   16   16
 6.631599607312987e-05    1    1   17    1
 -0.001233732009808025    1    1   17    3
 -0.001017826340565471    1    1   17    5
 0.0009788250556545838    1    1   17    7
 -0.0002369658095123192    1    1   17    9
 0.0001638173918114203    1    1   17   11
 0.0006926408241970263    1    1   17   13
 0.0380935968324612    1    1   17   15
 0.1250326275392997    1    1   17   17
 -0.0009428664839163585    1    1   18    2
 -0.0001676269609158888    1    1   18    4
 -0.0002189043059357001    1    1   18    6
 3.864518715079282e-05    1    1   18    8
 2.966994874375586e-05    1    1   18   10
 0.0001677526332332766    1    1   18   12
 0.001043030453506976    1    1   18   14
 0.007013037980007632    1    1   18   16
 0.1636888317179227    1    1   18   18
 0.0009487782891214606    1    1   19    1
 0.0005088896970296243    1    1   19    3
 -0.0005910926521618742    1    1   19    5
 2.265571839756678e-06    1    1   19    7
 2.995258076430634e-05    1    1   19    9
 -7.08070632917682e-05    1    1   19   11
 -0.0003695436109962635    1    1   19   13
 0.005262930757295589    1    1   19   15
 0.03386524700655349    1    1   19   17
 0.1509724390916078    1    1   19   19
 -0.0007868396162093319    1    1   20    2
 0.0008144178313625538    1    1   20    4
 -0.0006663308726305362    1    1   20    6
 0.000129789348464587    1    1   20    8
 6.301403330870127e-05    1    1   20   10
 0.0002111947096322721    1    1   20   12
 0.001122890908622091    1    1   20   14
 0.03715655353712137    1    1   20   16
 -0.03797643894816934    1    1   20   18
 0.1520033773011765    1    1   20   20
 0.06826997425580103    2    1    2    1
 0.04166701061888902    2    1    3    2
 0.02642702984428435    2    1    4    1
 -0.04110333825569887    2    1    4    3
 -0.02698856890972029    2    1    5    2
 -0.04047231140846769    2    1    5    4
 2.97067637249421e-05    2    1    6    1
 0.02737555046756754    2    1    6    3
 -0.03988586643939273    2    1    6    5
 0.0001821340711338564    2    1    7    2
 0.02768380048701408    2    1    7    4
 -0.03922547419180553    2    1    7    6
 4.806642919761539e-05    2    1    8    1
 0.0004278489707694361    2    1    8    3
 -0.02793056464954424    2    1    8    5
 0.03824979309709075    2    1    8    7
 -9.472248937053812e-05    2    1    9    2
 0.0007389043202607767    2    1    9    4
 -0.02813620947631396    2    1    9    6
 -0.0356839397572723    2    1    9    8
 1.472003208833338e-05    2    1   10    1
 0.0001319319087476531    2    1   10    3
 0.0009887385497559657    2    1   10    5
 -0.02903671355427312    2    1   10    7
 -0.05860535453816104    2    1   10    9
 4.960785169828384e-05    2    1   11    2
 -0.0002877986939313476    2    1   11    4
 -0.00343328126774757    2    1   11    6
 -0.02245616719806353    2    1   11    8
 0.02192545979195622    2    1   11   10
 3.476419910758108e-05    2    1   12    1
 0.0002191389148401614    2    1   12    3
 0.002109433238848068    2    1   12    5
 -0.007704373717980212    2    1   12    7
 0.01153245326162012    2    1   12    9
 0.05960063113029295    2    1   12   11
 0.0001385989830974274    2    1   13    2
 -0.001230685102920416    2    1   13    4
 0.004466529673443282    2    1   13    6
 2.004156643358032e-05    2    1   13    8
 -0.02266305232523909    2    1   13   10
 0.03461723117484279    2    1   13   12
 7.40180545946923e-05    2    1   14    1
 0.0007469729828709969    2    1   14    3
 -0.002893105701204106    2    1   14    5
 0.0003299599729575082    2    1   14    7
 0.007109004970130094    2    1   14    9
 -0.03073633715561472    2    1   14   11
 0.03849231600872363    2    1   14   13
 -0.0004645290069903017    2    1   15    2
 -0.002005379073665944    2    1   15    4
 0.0002602749528061399    2    1   15    6
 0.003964130110609232    2    1   15    8
 -0.004200662002033236    2    1   15   10
 0.02909732092631822    2    1   15   12
 -0.03968542255354584    2    1   15   14
 -0.0002677553448702758    2    1   16    1
 0.001479665751650339    2    1   16    3
 -0.0001922240700244832    2    1   16    5
 0.002459160292266625    2    1   16    7
 0.002631368749247963    2    1   16    9
 -0.001532251439476389    2    1   16   11
 0.02880858116109085    2    1   16   13
 0.04022467087035914    2    1   16   15
 -0.001148301469533778    2    1   17    2
 -5.43374946815181e-05    2    1   17    4
 0.001570583582739014    2    1   17    6
 0.001623812418156604    2    1   17    8
 0.0002973522953083215    2    1   17   10
 0.001633104134833011    2    1   17   12
 -0.02823848265772005    2    1   17   14
 -0.03887349884614864    2    1   17   16
 0.0006320984436085848    2    1   18    1
 -0.0009340119468046592    2    1   18    3
 0.0001646650793682238    2    1   18    5
 0.0003203560919998549    2    1   18    7
 -5.887769719708216e-05    2    1   18    9
 0.0001485312891461728    2    1   18   11
 0.001052680157358936    2    1   18   13
 0.005131617095702653    2    1   18   15
 -0.00704347280137637    2    1   18   17
 -0.0001110629368118646    2    1   19    2
 -0.0009650216271681202    2    1   19    4
 0.0008496908274886535    2    1   19    6
 1.866016971966471e-05    2    1   19    8
 -2.458651309514774e-05    2    1   19   10
 -0.0003153298004642841    2    1   19   12
 -0.004648653966944307    2    1   19   14
 -0.03033099331852963    2    1   19   16
 -0.07988079997961939    2    1   19   18
 -0.001242302228425382    2    1   20    1
 0.0003404403584490993    2    1   20    3
 -0.001255381551389781    2    1   20    5
 0.001016883641309822    2    1   20    7
 -0.0002015688897496674    2    1   20    9
 0.0003075460322191172    2    1   20   11
 0.001767214639329992    2    1   20   13
 0.02796499471152877    2    1   20   15
 0.05086542915587573    2    1   20   17
 -0.02690089887104608    2    1   20   19
 0.1336523385523155    2    2    1    1
 0.150307096642938    2    2    2    2
 0.01659132751209762    2    2    3    1
 0.1284103724007916    2    2    3    3
 0.005355784530574607    2    2    4    2
 0.127484262812364    2    2    4    4
 -0.02175384007906087    2    2    5    1
 -0.006311310305366676    2    2    5    3
 0.1266042576406209    2    2    5    5
 0.02209823063195284    2    2    6    2
 -0.007267151680881595    2    2    6    4
 0.1257256594512176    2    2    6    6
 0.0001535478412831302    2    2    7    1
 -0.02231162107694826    2    2    7    3
 -0.008220481886178268    2    2    7    5
 0.1245966345466955    2    2    7    7
 0.0004540999519619757    2    2    8    2
 0.02238356528768207    2    2    8    4
 0.009433679683258213    2    2    8    6
 0.1218856623591645    2    2    8    8
 -8.693999649633105e-05    2    2    9    1
 -0.0008039262280993612    2    2    9    3
 0.02230979809062674    2    2    9    5
 0.0122058560592726    2    2    9    7
 0.1364521141981999    2    2    9    9
 0.0001332834819798796    2    2   10    2
 -0.001082473831948429    2    2   10    4
 0.02290308273962122    2    2   10    6
 0.003867212393443321    2    2   10    8
 0.1330762075031287    2    2   10   10
 4.534502251323828e-05    2    2   11    1
 0.0003000836655295853    2    2   11    3
 0.003499335513282315    2    2   11    5
 -0.01740749927191268    2    2   11    7
 0.001071824886972453    2    2   11    9
 0.1344402290883179    2    2   11   11
 0.0002266205888443705    2    2   12    2
 -0.002154284217254283    2    2   12    4
 0.005004268375906763    2    2   12    6
 -0.01891845519808828    2    2   12    8
 -0.001168025835987367    2    2   12   10
 0.1372779141307506    2    2   12   12
 0.0001250534031377107    2    2   13    1
 0.001257060366539896    2    2   13    3
 -0.003001537994245237    2    2   13    5
 -0.004058131281550632    2    2   13    7
 0.01881026875733924    2    2   13    9
 0.002823628882946809    2    2   13   11
 0.1219410245618385    2    2   13   13
 0.0007467694908463668    2    2   14    2
 0.002020762038587279    2    2   14    4
 0.002303332883931641    2    2   14    6
 -0.003750402434799575    2    2   14    8
 -0.01685337442282742    2    2   14   10
 -0.01437456648384781    2    2   14   12
 0.1260980493427106    2    2   14   14
 -0.0004194824806587702    2    2   15    1
 0.001458509588707644    2    2   15    3
 0.001524092449578403    2    2   15    5
 0.002024637891659372    2    2   15    7
 -0.003881081874912757    2    2   15    9
 0.02400239506226145    2    2   15   11
 0.01048691749061795    2    2   15   13
 0.1276352239348121    2    2   15   15
 0.001138681856969617    2    2   16    2
 -0.001096868838301701    2    2   16    4
 -0.001278197285527521    2    2   16    6
 0.002130963394677213    2    2   16    8
 -0.004297050268107873    2    2   16   10
 0.02250213102073367    2    2   16   12
 0.009279575980164843    2    2   16   14
 0.1288123701320358    2    2   16   16
 -0.001065369517061744    2    2   17    1
 -0.0008867723338213755    2    2   17    3
 -0.0009385510870629824    2    2   17    5
 -0.001246160026188044    2    2   17    7
 -0.002723297165340948    2    2   17    9
 0.001988297115133319    2    2   17   11
 -0.02196463096709107    2    2   17   13
 0.00987173921917148    2    2   17   15
 0.1319201355059896    2    2   17   17
 4.356930253903881e-05    2    2   18    2
 0.0009803713824425425    2    2   18    4
 -0.0003978683332355425    2    2   18    6
 0.0004965013961849524    2    2   18    8
 6.905355828798688e-05    2    2   18   10
 0.001138272051847454    2    2   18   12
 -0.002996528585072659    2    2   18   14
 0.0204067791247068    2    2   18   16
 0.143032969314302    2    2   18   18
 -0.0002698624706200285    2    2   19    1
 0.0005513797337675316    2    2   19    3
 0.000679183353685931    2    2   19    5
 -0.001166934268992522    2    2   19    7
 -4.174190538184158e-05    2    2   19    9
 -0.0002597180452663748    2    2   19   11
 -0.004474354104973952    2    2   19   13
 -0.02028487454414746    2    2   19   15
 -0.001527172445956265    2    2   19   17
 0.1556293894302388    2    2   19   19
 -0.0008030137341753998    2    2   20    2
 0.0004305747314004039    2    2   20    4
 0.001048188721714565    2    2   20    6
 0.001617672360391525    2    2   20    8
 0.0002533098101213887    2    2   20   10
 0.002179609545518894    2    2   20   12
 -0.02165872082184001    2    2   20   14
 0.0008230626017540852    2    2   20   16
 0.01842317705417696    2    2   20   18
 0.128329439520356    2    2   20   20
 -0.03563662614180519    3    1    1    1
 0.01659132751209761    3    1    2    2
 0.05213561264183496    3    1    3    1
 -0.00390589733198724    3    1    3    3
 -0.03119725883656244    3    1    4    2
 -0.003685651226713101    3    1    4    4
 -0.02105784935736671    3    1    5    1
 0.03072582433423972    3    1    5    3
 -0.003586384554186531    3    1    5    5
 0.02144928204337562    3    1    6    2
 0.03013891392936471    3    1    6    4
 -0.003476079583461333    3    1    6    6
 0.0002440781745865904    3    1    7    1
 -0.02177677070169949    3    1    7    3
 0.02948941206823873    3    1    7    5
 -0.003431785770328136    3    1    7    7
 0.0005689461655988731    3    1    8    2
 0.02205256055980883    3    1    8    4
 -0.02853100823979931    3    1    8    6
 -0.004459838825906636    3    1    8    8
 -0.0001327904492920193    3    1    9    1
 -0.000883416895638588    3    1    9    3
 0.02229982572860443    3    1    9    5
 -0.02598187851731537    3    1    9    7
 0.01325322421030488    3    1    9    9
 0.0001747984037980216    3    1   10    2
 -0.001079301044013712    3    1   10    4
 0.02324355368440784    3    1   10    6
 0.04261916208431698    3    1   10    8
 -0.02344904609685469    3    1   10   10
 4.410854995504314e-05    3    1   11    1
 0.0002813607221637134    3    1   11    3
 0.003232490926182367    3    1   11    5
 -0.02047548757199653    3    1   11    7
 -0.02219919904395136    3    1   11    9
 -0.02210267433203656    3    1   11   11
 0.0002123668245426193    3    1   12    2
 -0.00197996727198169    3    1   12    4
 0.006903875584643737    3    1   12    6
 -0.01028840681396659    3    1   12    8
 0.02186722459703111    3    1   12   10
 0.01520491135085075    3    1   12   12
 0.0001162993029366764    3    1   13    1
 0.001147367467114105    3    1   13    3
 -0.004075550806738012    3    1   13    5
 0.0007737143709747522    3    1   13    7
 0.01094478961997153    3    1   13    9
 0.04353788448242266    3    1   13   11
 -0.005128658264140895    3    1   13   13
 0.0006776426870466074    3    1   14    2
 0.002670926289010386    3    1   14    4
 -0.0007660068649824744    3    1   14    6
 0.0004525098106317404    3    1   14    8
 -0.02072157091089911    3    1   14   10
 0.02502533169949869    3    1   14   12
 -0.00307506446238254    3    1   14   14
 -0.0003770492145450858    3    1   15    1
 0.001864831620226637    3    1   15    3
 -0.0005575698935689506    3    1   15    5
 -0.0005052545515832523    3    1   15    7
 -0.006339102192521776    3    1   15    9
 0.02471455341526381    3    1   15   11
 -0.02861739286043143    3    1   15   13
 -0.002630594511858643    3    1   15   15
 0.001378394848879871    3    1   16    2
 0.0004125567004555166    3    1   16    4
 0.0003194093342312596    3    1   16    6
 0.003611217187240567    3    1   16    8
 -0.003967028738762593    3    1   16   10
 0.02307078397471825    3    1   16   12
 -0.02950730240412361    3    1   16   14
 -0.0014566470971408    3    1   16   16
 -0.001114327717285355    3    1   17    1
 0.0003309997152561361    3    1   17    3
 7.570974756968971e-05    3    1   17    5
 -0.00220926312527731    3    1   17    7
 -0.002469399962820537    3    1   17    9
 0.001788669148306605    3    1   17   11
 -0.02260540287365375    3    1   17   13
 -0.02821106684235171    3    1   17   15
 0.006877180808183329    3    1   17   17
 0.0009575456975250153    3    1   18    2
 0.001127782721370425    3    1   18    4
 -0.000175225141525874    3    1   18    6
 0.0004562968975938969    3    1   18    8
 4.174058368494788e-05    3    1   18   10
 0.0009633956572187389    3    1   18   12
 -0.004056829729404503    3    1   18   14
 0.0133138035372921    3    1   18   16
 -0.0206756440509676    3    1   18   18
 -0.001184555804231685    3    1   19    1
 4.466704834682322e-05    3    1   19    3
 0.001252710045491986    3    1   19    5
 -0.001158021396191653    3    1   19    7
 -6.661555038746171e-05    3    1   19    9
 -0.0001942224204255881    3    1   19   11
 -0.004065189834521281    3    1   19   13
 -0.0254830918124332    3    1   19   15
 -0.03538140822299324    3    1   19   17
 0.004580672931042257    3    1   19   19
 -2.282868560771069e-05    3    1   20    2
 -0.0003737727810103606    3    1   20    4
 0.001697062760479573    3    1   20    6
 0.001476235303798204    3    1   20    8
 0.0001951958802369059    3    1   20   10
 0.001934237159527834    3    1   20   12
 -0.02271778544839586    3    1   20   14
 -0.03629860258220684    3    1   20   16
 0.05631309286518334    3    1   20   18
 -0.02363217317437738    3    1   20   20
 0.04166701061888903    3    2    2    1
 0.05726211797203175    3    2    3    2
 -0.01534946937099926    3    2    4    1
 -0.03984912862911909    3    2    4    3
 -0.002681027368690601    3    2    5    2
 -0.0394267231827654    3    2    5    4
 0.01776682599721043    3    2    6    1
 0.003488818216523052    3    2    6    3
 -0.03893953907834148    3    2    6    5
 -0.01782297412776412    3    2    7    2
 0.004440690759941836    3    2    7    4
 -0.03829802985923002    3    2    7    6
 0.0004825002552976172    3    2    8    1
 -0.01785815654524097    3    2    8    3
 -0.00561653188227241    3    2    8    5
 0.03633324296641676    3    2    8    7
 -0.0009107828907372253    3    2    9    2
 -0.0178032632297119    3    2    9    4
 -0.008246226609597215    3    2    9    6
 -0.04715966884310076    3    2    9    8
 0.000154390028787835    3    2   10    1
 0.001155507515944062    3    2   10    3
 -0.01845691719038053    3    2   10    5
 0.003831772479566834    3    2   10    7
 -0.04465480999093095    3    2   10    9
 0.0002920131381875501    3    2   11    2
 -0.003237258727872932    3    2   11    4
 0.01486635568000464    3    2   11    6
 -0.00225847166601701    3    2   11    8
 0.01869685670819262    3    2   11   10
 0.0001922997044679108    3    2   12    1
 0.001990062122681689    3    2   12    3
 -0.003988192420740767    3    2   12    5
 -0.01687345189208573    3    2   12    7
 -0.00758073871174476    3    2   12    9
 0.04655450755493783    3    2   12   11
 0.001132029431444397    3    2   13    2
 0.002433815617088705    3    2   13    4
 0.003378570730648093    3    2   13    6
 -0.01149746981889448    3    2   13    8
 -0.002881752040111334    3    2   13   10
 0.04781965070201591    3    2   13   12
 0.0005998426982794518    3    2   14    1
 -0.001677374015169784    3    2   14    3
 -0.001957613874947428    3    2   14    5
 0.0003696717625498925    3    2   14    7
 0.01699829190274478    3    2   14    9
 0.002814177692055961    3    2   14   11
 0.03610897696368991    3    2   14   13
 0.001254737344008022    3    2   15    2
 -0.001312815710507752    3    2   15    4
 0.0004285540865637635    3    2   15    6
 0.003213765203022563    3    2   15    8
 0.01422530733956417    3    2   15   10
 0.01024711488069266    3    2   15   12
 -0.03932333487003777    3    2   15   14
 0.0011836048769505    3    2   16    1
 0.0009482196511199855    3    2   16    3
 -0.000296401991193564    3    2   16    5
 0.001848480771901134    3    2   16    7
 -0.002837551909982299    3    2   16    9
 0.01919507703417905    3    2   16   11
 0.006837898022077397    3    2   16   13
 0.04066068414962008    3    2   16   15
 -0.000770590019097553    3    2   17    2
 -0.0001341918228262601    3    2   17    4
 0.001324471999684079    3    2   17    6
 -0.001472978696150007    3    2   17    8
 0.00401199991086816    3    2   17   10
 -0.01736523017968777    3    2   17   12
 -0.007122153772046596    3    2   17   14
 -0.04314003021623518    3    2   17   16
 0.0006422735687852828    3    2   18    1
 7.97505548586052e-05    3    2   18    3
 -0.001139482289556224    3    2   18    5
 0.0005487884590969563    3    2   18    7
 -0.0007175423103714098    3    2   18    9
 0.0009965954225339513    3    2   18   11
 -0.002129792552383425    3    2   18   13
 0.01764710805209418    3    2   18   15
 0.03032160003137535    3    2   18   17
 -0.0008894430310783004    3    2   19    2
 -0.0008637135131448223    3    2   19    4
 -0.0007477847464031958    3    2   19    6
 -0.001618096813710306    3    2   19    8
 0.0001533821599377806    3    2   19   10
 -0.004058562747912198    3    2   19   12
 0.01682600217762615    3    2   19   14
 -0.004261797558292453    3    2   19   16
 -0.0459241099916334    3    2   19   18
 -6.034517889564143e-06    3    2   20    1
 5.691170464658362e-05    3    2   20    3
 -0.0006910346750611236    3    2   20    5
 -0.001235778252231455    3    2   20    7
 -0.002411426641425079    3    2   20    9
 0.002178941463973418    3    2   20   11
 -0.01746312648032941    3    2   20   13
 0.0002457963523219614    3    2   20   15
 0.04576331662022132    3    2   20   17
 -0.04525803649106623    3    2   20   19
 0.1323431022753362    3    3    1    1
 0.1284103724007917    3    3    2    2
 -0.003905897331987242    3    3    3    1
 0.1413171033987317    3    3    3    3
 -0.008924903052801816    3    3    4    2
 0.1261728751708629    3    3    4    4
 0.01257305184034286    3    3    5    1
 -0.006258707936897642    3    3    5    3
 0.1253768864747277    3    3    5    5
 0.002817663981575404    3    3    6    2
 -0.00697546796650431    3    3    6    4
 0.1244401346897863    3    3    6    6
 -0.01519085171532424    3    3    7    1
 -0.003498207740866698    3    3    7    3
 -0.007878769092267101    3    3    7    5
 0.1223373509510399    3    3    7    7
 -0.01505837451241275    3    3    8    2
 0.004466613929488994    3    3    8    4
 0.009967621489172324    3    3    8    6
 0.129593687088987    3    3    8    8
 -0.0006567893316256238    3    3    9    1
 0.01495466113444627    3    3    9    3
 0.006644511939957123    3    3    9    5
 0.00201262341152703    3    3    9    7
 0.1268810483008134    3    3    9    9
 0.001000107559420046    3    3   10    2
 0.01550710459638857    3    3   10    4
 -0.003346209410173307    3    3   10    6
 -0.004687389800946155    3    3   10    8
 0.1309810559486925    3    3   10   10
 0.000224954383982297    3    3   11    1
 0.002886055729217945    3    3   11    3
 -0.01261789801281463    3    3   11    5
 -3.348301391452985e-05    3    3   11    7
 0.003233523035533489    3    3   11    9
 0.132181631764723    3    3   11   11
 0.001724331739315792    3    3   12    2
 0.003165104816696439    3    3   12    4
 0.0133037151688469    3    3   12    6
 -0.001935067370447995    3    3   12    8
 -0.003262430854073322    3    3   12   10
 0.128326755222455    3    3   12   12
 0.0008751747050450537    3    3   13    1
 -0.001970013781741631    3    3   13    3
 -0.001944937185048895    3    3   13    5
 -0.01456494705395416    3    3   13    7
 0.001909174200769714    3    3   13    9
 -0.004877032633195624    3    3   13   11
 0.1311466520882725    3    3   13   13
 -0.001412693168010463    3    3   14    2
 0.001135667790490054    3    3   14    4
 0.002094904619234666    3    3   14    6
 -0.01433461133316749    3    3   14    8
 -8.251068078245325e-05    3    3   14   10
 -0.002613880006916991    3    3   14   12
 0.1235169642643604    3    3   14   14
 0.001325263117914887    3    3   15    1
 0.0008075624181632359    3    3   15    3
 0.001279372745683504    3    3   15    5
 0.001819834603030944    3    3   15    7
 -0.01288842864352794    3    3   15    9
 -0.002556559398459454    3    3   15   11
 0.01123575032631545    3    3   15   13
 0.1271314550249927    3    3   15   15
 0.0007807797717113272    3    3   16    2
 -0.0009212988616862472    3    3   16    4
 -0.001064167983967087    3    3   16    6
 0.001424693590882493    3    3   16    8
 0.01177123432205495    3    3   16   10
 0.008262911829066152    3    3   16   12
 0.007977580887119732    3    3   16   14
 0.1294636757873342    3    3   16   16
 0.000167906457748963    3    3   17    1
 -0.000795232242261057    3    3   17    3
 -0.0007645090760615403    3    3   17    5
 -0.000903682448606914    3    3   17    7
 0.001699066160648797    3    3   17    9
 -0.01558799280941919    3    3   17   11
 -0.006324396918510515    3    3   17   13
 0.005861460597563362    3    3   17   15
 0.1343433011113375    3    3   17   17
 -3.510914411306458e-05    3    3   18    2
 -0.0001085969479424263    3    3   18    4
 0.001120712297357732    3    3   18    6
 0.000841939385293033    3    3   18    8
 0.00110485541636763    3    3   18   10
 -0.001328083735613542    3    3   18   12
 -0.01441295813325077    3    3   18   14
 -0.01305173543406467    3    3   18   16
 0.1334456947046232    3    3   18   18
 0.0001399961969444064    3    3   19    1
 -0.0002447994642557407    3    3   19    3
 0.0005087705645170975    3    3   19    5
 0.0008426576964963843    3    3   19    7
 0.002388630269458176    3    3   19    9
 -0.003741821558453956    3    3   19   11
 0.01373847652156821    3    3   19   13
 0.0001324155088224013    3    3   19   15
 -0.009512334600272655    3    3   19   17
 0.1276676077334911    3    3   19   19
 4.414353190131356e-05    3    3   20    2
 0.0006499158271851079    3    3   20    4
 0.0003329702208323271    3    3   20    6
 -0.00139433598951768    3    3   20    8
 0.00367261170938458    3    3   20   10
 -0.0143584051289405    3    3   20   12
 3.00946087054086e-05    3    3   20   14
 0.005798744670842499    3    3   20   16
 -0.002878814252219548    3    3   20   18
 0.1468562268436727    3    3   20   20
 0.02642702984428436    4    1    2    1
 -0.01534946937099926    4    1    3    2
 0.04136050787623679    4    1    4    1
 -0.001238101261928305    4    1    4    3
 -0.02415992115520507    4    1    5    2
 -0.001070878993142718    4    1    5    4
 -0.01747035933598934    4    1    6    1
 0.02370418131185078    4    1    6    3
 -0.0009749406843666236    4    1    6    5
 0.01778109807037301    4    1    7    2
 0.02306633310177987    4    1    7    4
 -0.0009584738268821415    4    1    7    6
 -0.0003854026757878276    4    1    8    1
 0.01806672216083077    4    1    8    3
 -0.02214659638851487    4    1    8    5
 0.001915149938257898    4    1    8    7
 0.0007602423247013695    4    1    9    2
 0.01833026347887666    4    1    9    4
 -0.0197759980817171    4    1    9    6
 0.01134399842692403    4    1    9    8
 -0.0001377135212825274    4    1   10    1
 -0.0009650849980798499    4    1   10    3
 0.01920341406990402    4    1   10    5
 -0.03261911004558241    4    1   10    7
 -0.0139163291722336    4    1   10    9
 -0.000244648260205579    4    1   11    2
 0.002860437043679195    4    1   11    4
 -0.01803185131763441    4    1   11    6
 -0.01998183796995862    4    1   11    8
 0.003208250128798299    4    1   11   10
 -0.0001583433901929077    4    1   12    1
 -0.001724193918313283    4    1   12    3
 0.006028784271315916    4    1   12    5
 0.009040591149859192    4    1   12    7
 0.01892429988005338    4    1   12    9
 0.01300581235121186    4    1   12   11
 -0.0009632861167556954    4    1   13    2
 -0.003589735089440721    4    1   13    4
 0.001019728168647293    4    1   13    6
 0.01134751258144177    4    1   13    8
 -0.01958515495716641    4    1   13   10
 -0.01305617398052479    4    1   13   12
 -0.0005047354914178839    4    1   14    1
 0.002359178375938052    4    1   14    3
 -0.0008969798603318271    4    1   14    5
 -5.35531748996061e-06    4    1   14    7
 -0.009742397755123554    4    1   14    9
 -0.0332942116183126    4    1   14   11
 0.002374416654936866    4    1   14   13
 -0.001661583741522909    4    1   15    2
 -0.0006564737149013212    4    1   15    4
 -0.0001654693055767821    4    1   15    6
 0.0006995133724951461    4    1   15    8
 -0.01817010605527501    4    1   15   10
 0.01875317851127521    4    1   15   12
 -0.0004013498901012047    4    1   15   14
 -0.001387533463176579    4    1   16    1
 0.0004948398773034851    4    1   16    3
 0.0001041803896390991    4    1   16    5
 0.0005907305320061244    4    1   16    7
 0.005417695296709055    4    1   16    9
 -0.02047662426961566    4    1   16   11
 0.02181311606897892    4    1   16   13
 -0.0003945249047983068    4    1   16   15
 -0.0003463327447164743    4    1   17    2
 7.817458283984473e-05    4    1   17    4
 0.0002338504152697542    4    1   17    6
 0.003038189460094294    4    1   17    8