[Molden Format]
made by pyscf v[2.0.1]
[Atoms] (AU)
C   1   6     1.37005144030967     0.00000000000000     0.00000000000000
C   2   6    -1.37005144030967     0.00000000000000     0.00000000000000
C   3   6     2.63616794376826     2.19297811229174     0.00000000000000
C   4   6    -2.63616794376826    -2.19297811229174     0.00000000000000
H   5   1     2.39050354757480    -1.76747489647394     0.00000000000000
H   6   1    -2.39050354757480     1.76747489647394     0.00000000000000
C   7   6     5.37627082438760     2.19297811229174     0.00000000000000
C   8   6    -5.37627082438760    -2.19297811229174     0.00000000000000
H   9   1     1.61571583650313     3.96045300876567     0.00000000000000
H   10   1    -1.61571583650313    -3.96045300876567     0.00000000000000
C   11   6     6.64238732784619     4.38595622458347     0.00000000000000
C   12   6    -6.64238732784619    -4.38595622458347     0.00000000000000
H   13   1     6.39672293165273     0.42550321581780     0.00000000000000
H   14   1    -6.39672293165273    -0.42550321581780     0.00000000000000
H   15   1     8.68329154237646     4.38595622458347     0.00000000000000
H   16   1    -8.68329154237646    -4.38595622458347     0.00000000000000
H   17   1     5.62193522058106     6.15343112105741     0.00000000000000
H   18   1    -5.62193522058106    -6.15343112105741     0.00000000000000
[GTO]
1 0
 s    6 1.00
             3047.5249  0.0018347001629433
             457.36951    0.01403730124668
             103.94869   0.068842606114048
             29.210155    0.23218442062076
              9.286663    0.46794134155879
              3.163927    0.36231203217765
 s    3 1.00
             7.8682724   -0.11933240861517
             1.8812885   -0.16085421161283
             0.5442493     1.1434564825515
 s    1 1.00
             0.1687144                   1
 p    3 1.00
             7.8682724   0.068999095584993
             1.8812885    0.31642397975315
             0.5442493    0.74430825237435
 p    1 1.00
             0.1687144                   1

2 0
 s    6 1.00
             3047.5249  0.0018347001629433
             457.36951    0.01403730124668
             103.94869   0.068842606114048
             29.210155    0.23218442062076
              9.286663    0.46794134155879
              3.163927    0.36231203217765
 s    3 1.00
             7.8682724   -0.11933240861517
             1.8812885   -0.16085421161283
             0.5442493     1.1434564825515
 s    1 1.00
             0.1687144                   1
 p    3 1.00
             7.8682724   0.068999095584993
             1.8812885    0.31642397975315
             0.5442493    0.74430825237435
 p    1 1.00
             0.1687144                   1

3 0
 s    6 1.00
             3047.5249  0.0018347001629433
             457.36951    0.01403730124668
             103.94869   0.068842606114048
             29.210155    0.23218442062076
              9.286663    0.46794134155879
              3.163927    0.36231203217765
 s    3 1.00
             7.8682724   -0.11933240861517
             1.8812885   -0.16085421161283
             0.5442493     1.1434564825515
 s    1 1.00
             0.1687144                   1
 p    3 1.00
             7.8682724   0.068999095584993
             1.8812885    0.31642397975315
             0.5442493    0.74430825237435
 p    1 1.00
             0.1687144                   1

4 0
 s    6 1.00
             3047.5249  0.0018347001629433
             457.36951    0.01403730124668
             103.94869   0.068842606114048
             29.210155    0.23218442062076
              9.286663    0.46794134155879
              3.163927    0.36231203217765
 s    3 1.00
             7.8682724   -0.11933240861517
             1.8812885   -0.16085421161283
             0.5442493     1.1434564825515
 s    1 1.00
             0.1687144                   1
 p    3 1.00
             7.8682724   0.068999095584993
             1.8812885    0.31642397975315
             0.5442493    0.74430825237435
 p    1 1.00
             0.1687144                   1

5 0
 s    3 1.00
             18.731137    0.03349459952309
             2.8253937    0.23472694665786
             0.6401217    0.81375731841339
 s    1 1.00
             0.1612778                   1

6 0
 s    3 1.00
             18.731137    0.03349459952309
             2.8253937    0.23472694665786
             0.6401217    0.81375731841339
 s    1 1.00
             0.1612778                   1

7 0
 s    6 1.00
             3047.5249  0.0018347001629433
             457.36951    0.01403730124668
             103.94869   0.068842606114048
             29.210155    0.23218442062076
              9.286663    0.46794134155879
              3.163927    0.36231203217765
 s    3 1.00
             7.8682724   -0.11933240861517
             1.8812885   -0.16085421161283
             0.5442493     1.1434564825515
 s    1 1.00
             0.1687144                   1
 p    3 1.00
             7.8682724   0.068999095584993
             1.8812885    0.31642397975315
             0.5442493    0.74430825237435
 p    1 1.00
             0.1687144                   1

8 0
 s    6 1.00
             3047.5249  0.0018347001629433
             457.36951    0.01403730124668
             103.94869   0.068842606114048
             29.210155    0.23218442062076
              9.286663    0.46794134155879
              3.163927    0.36231203217765
 s    3 1.00
             7.8682724   -0.11933240861517
             1.8812885   -0.16085421161283
             0.5442493     1.1434564825515
 s    1 1.00
             0.1687144                   1
 p    3 1.00
             7.8682724   0.068999095584993
             1.8812885    0.31642397975315
             0.5442493    0.74430825237435
 p    1 1.00
             0.1687144                   1

9 0
 s    3 1.00
             18.731137    0.03349459952309
             2.8253937    0.23472694665786
             0.6401217    0.81375731841339
 s    1 1.00
             0.1612778                   1

10 0
 s    3 1.00
             18.731137    0.03349459952309
             2.8253937    0.23472694665786
             0.6401217    0.81375731841339
 s    1 1.00
             0.1612778                   1

11 0
 s    6 1.00
             3047.5249  0.0018347001629433
             457.36951    0.01403730124668
             103.94869   0.068842606114048
             29.210155    0.23218442062076
              9.286663    0.46794134155879
              3.163927    0.36231203217765
 s    3 1.00
             7.8682724   -0.11933240861517
             1.8812885   -0.16085421161283
             0.5442493     1.1434564825515
 s    1 1.00
             0.1687144                   1
 p    3 1.00
             7.8682724   0.068999095584993
             1.8812885    0.31642397975315
             0.5442493    0.74430825237435
 p    1 1.00
             0.1687144                   1

12 0
 s    6 1.00
             3047.5249  0.0018347001629433
             457.36951    0.01403730124668
             103.94869   0.068842606114048
             29.210155    0.23218442062076
              9.286663    0.46794134155879
              3.163927    0.36231203217765
 s    3 1.00
             7.8682724   -0.11933240861517
             1.8812885   -0.16085421161283
             0.5442493     1.1434564825515
 s    1 1.00
             0.1687144                   1
 p    3 1.00
             7.8682724   0.068999095584993
             1.8812885    0.31642397975315
             0.5442493    0.74430825237435
 p    1 1.00
             0.1687144                   1

13 0
 s    3 1.00
             18.731137    0.03349459952309
             2.8253937    0.23472694665786
             0.6401217    0.81375731841339
 s    1 1.00
             0.1612778                   1

14 0
 s    3 1.00
             18.731137    0.03349459952309
             2.8253937    0.23472694665786
             0.6401217    0.81375731841339
 s    1 1.00
             0.1612778                   1

15 0
 s    3 1.00
             18.731137    0.03349459952309
             2.8253937    0.23472694665786
             0.6401217    0.81375731841339
 s    1 1.00
             0.1612778                   1

16 0
 s    3 1.00
             18.731137    0.03349459952309
             2.8253937    0.23472694665786
             0.6401217    0.81375731841339
 s    1 1.00
             0.1612778                   1

17 0
 s    3 1.00
             18.731137    0.03349459952309
             2.8253937    0.23472694665786
             0.6401217    0.81375731841339
 s    1 1.00
             0.1612778                   1

18 0
 s    3 1.00
             18.731137    0.03349459952309
             2.8253937    0.23472694665786
             0.6401217    0.81375731841339
 s    1 1.00
             0.1612778                   1

[5d]
[7f]
[9g]

[MO]
 Sym= Au
 Ene=               0
 Spin= Alpha
 Occup=    1.00000
   1                     0
   2                     0
   3                     0
   4                     0
   5                     0
   6      0.24712936657775
   7                     0
   8                     0
   9      0.15673139820001
  10                     0
  11                     0
  12                     0
  13                     0
  14                     0
  15      0.24712936657775
  16                     0
  17                     0
  18      0.15673139820001
  19                     0
  20                     0
  21                     0
  22                     0
  23                     0
  24      0.22342496837184
  25                     0
  26                     0
  27      0.14276823304094
  28                     0
  29                     0
  30                     0
  31                     0
  32                     0
  33      0.22342496837184
  34                     0
  35                     0
  36      0.14276823304094
  37                     0
  38                     0
  39                     0
  40                     0
  41                     0
  42                     0
  43                     0
  44                     0
  45                     0
  46      0.15229552242537
  47                     0
  48                     0
  49     0.094020104458628
  50                     0
  51                     0
  52                     0
  53                     0
  54                     0
  55      0.15229552242537
  56                     0
  57                     0
  58     0.094020104458628
  59                     0
  60                     0
  61                     0
  62                     0
  63                     0
  64                     0
  65                     0
  66                     0
  67                     0
  68     0.098303989251501
  69                     0
  70                     0
  71     0.063648164012453
  72                     0
  73                     0
  74                     0
  75                     0
  76                     0
  77     0.098303989251501
  78                     0
  79                     0
  80     0.063648164012453
  81                     0
  82                     0
  83                     0
  84                     0
  85                     0
  86                     0
  87                     0
  88                     0
  89                     0
  90                     0
  91                     0
  92                     0
 Sym= Bg
 Ene=               1
 Spin= Alpha
 Occup=    1.00000
   1                     0
   2                     0
   3                     0
   4                     0
   5                     0
   6      0.10835864727315
   7                     0
   8                     0
   9     0.079285534917687
  10                     0
  11                     0
  12                     0
  13                     0
  14                     0
  15     -0.10835864727315
  16                     0
  17                     0
  18    -0.079285534917687
  19                     0
  20                     0
  21                     0
  22                     0
  23                     0
  24      0.20310871589327
  25                     0
  26                     0
  27       0.1375583487754
  28                     0
  29                     0
  30                     0
  31                     0
  32                     0
  33     -0.20310871589327
  34                     0
  35                     0
  36      -0.1375583487754
  37                     0
  38                     0
  39                     0
  40                     0
  41                     0
  42                     0
  43                     0
  44                     0
  45                     0
  46      0.24391461163865
  47                     0
  48                     0
  49      0.16563126320437
  50                     0
  51                     0
  52                     0
  53                     0
  54                     0
  55     -0.24391461163865
  56                     0
  57                     0
  58     -0.16563126320437
  59                     0
  60                     0
  61                     0
  62                     0
  63                     0
  64                     0
  65                     0
  66                     0
  67                     0
  68        0.189458618259
  69                     0
  70                     0
  71      0.13294447781518
  72                     0
  73                     0
  74                     0
  75                     0
  76                     0
  77       -0.189458618259
  78                     0
  79                     0
  80     -0.13294447781518
  81                     0
  82                     0
  83                     0
  84                     0
  85                     0
  86                     0
  87                     0
  88                     0
  89                     0
  90                     0
  91                     0
  92                     0
 Sym= Au
 Ene=               2
 Spin= Alpha
 Occup=    1.00000
   1                     0
   2                     0
   3                     0
   4                     0
   5                     0
   6     -0.19344401871104
   7                     0
   8                     0
   9     -0.14645849430095
  10                     0
  11                     0
  12                     0
  13                     0
  14                     0
  15     -0.19344401871104
  16                     0
  17                     0
  18     -0.14645849430095
  19                     0
  20                     0
  21                     0
  22                     0
  23                     0
  24     -0.05832418531759
  25                     0
  26                     0
  27    -0.051437049274401
  28                     0
  29                     0
  30                     0
  31                     0
  32                     0
  33     -0.05832418531759
  34                     0
  35                     0
  36    -0.051437049274401
  37                     0
  38                     0
  39                     0
  40                     0
  41                     0
  42                     0
  43                     0
  44                     0
  45                     0
  46      0.23166605551297
  47                     0
  48                     0
  49      0.18041705700138
  50                     0
  51                     0
  52                     0
  53                     0
  54                     0
  55      0.23166605551297
  56                     0
  57                     0
  58      0.18041705700138
  59                     0
  60                     0
  61                     0
  62                     0
  63                     0
  64                     0
  65                     0
  66                     0
  67                     0
  68      0.25093510854795
  69                     0
  70                     0
  71       0.1973580690248
  72                     0
  73                     0
  74                     0
  75                     0
  76                     0
  77      0.25093510854795
  78                     0
  79                     0
  80       0.1973580690248
  81                     0
  82                     0
  83                     0
  84                     0
  85                     0
  86                     0
  87                     0
  88                     0
  89                     0
  90                     0
  91                     0
  92                     0
 Sym= Bg
 Ene=               3
 Spin= Alpha
 Occup=    1.00000
   1                     0
   2                     0
   3                     0
   4                     0
   5                     0
   6      0.21407943424063
   7                     0
   8                     0
   9      0.19210422744459
  10                     0
  11                     0
  12                     0
  13                     0
  14                     0
  15     -0.21407943424063
  16                     0
  17                     0
  18     -0.19210422744459
  19                     0
  20                     0
  21                     0
  22                     0
  23                     0
  24      0.25110714810774
  25                     0
  26                     0
  27      0.22072618499008
  28                     0
  29                     0
  30                     0
  31                     0
  32                     0
  33     -0.25110714810774
  34                     0
  35                     0
  36     -0.22072618499008
  37                     0
  38                     0
  39                     0
  40                     0
  41                     0
  42                     0
  43                     0
  44                     0
  45                     0
  46     -0.12394673516237
  47                     0
  48                     0
  49     -0.11203765401704
  50                     0
  51                     0
  52                     0
  53                     0
  54                     0
  55      0.12394673516237
  56                     0
  57                     0
  58      0.11203765401704
  59                     0
  60                     0
  61                     0
  62                     0
  63                     0
  64                     0
  65                     0
  66                     0
  67                     0
  68       -0.224171900643
  69                     0
  70                     0
  71     -0.19733014222479
  72                     0
  73                     0
  74                     0
  75                     0
  76                     0
  77        0.224171900643
  78                     0
  79                     0
  80      0.19733014222479
  81                     0
  82                     0
  83                     0
  84                     0
  85                     0
  86                     0
  87                     0
  88                     0
  89                     0
  90                     0
  91                     0
  92                     0
 Sym= Au
 Ene=               4
 Spin= Alpha
 Occup=    1.00000
   1                     0
   2                     0
   3                     0
   4                     0
   5                     0
   6      0.26020339171665
   7                     0
   8                     0
   9      0.18707675688885
  10                     0
  11                     0
  12                     0
  13                     0
  14                     0
  15      0.26020339171665
  16                     0
  17                     0
  18      0.18707675688885
  19                     0
  20                     0
  21                     0
  22                     0
  23                     0
  24      -0.3007841002581
  25                     0
  26                     0
  27     -0.22484848844061
  28                     0
  29                     0
  30                     0
  31                     0
  32                     0
  33      -0.3007841002581
  34                     0
  35                     0
  36     -0.22484848844061
  37                     0
  38                     0
  39                     0
  40                     0
  41                     0
  42                     0
  43                     0
  44                     0
  45                     0
  46     -0.17142725857728
  47                     0
  48                     0
  49     -0.11374404070643
  50                     0
  51                     0
  52                     0
  53                     0
  54                     0
  55     -0.17142725857728
  56                     0
  57                     0
  58     -0.11374404070643
  59                     0
  60                     0
  61                     0
  62                     0
  63                     0
  64                     0
  65                     0
  66                     0
  67                     0
  68      0.29026643385195
  69                     0
  70                     0
  71       0.2220759360402
  72                     0
  73                     0
  74                     0
  75                     0
  76                     0
  77      0.29026643385195
  78                     0
  79                     0
  80       0.2220759360402
  81                     0
  82                     0
  83                     0
  84                     0
  85                     0
  86                     0
  87                     0
  88                     0
  89                     0
  90                     0
  91                     0
  92                     0
 Sym= Bg
 Ene=               5
 Spin= Alpha
 Occup=    1.00000
   1                     0
   2                     0
   3                     0
   4                     0
   5                     0
   6      0.25825132504216
   7                     0
   8                     0
   9      0.22477926718718
  10                     0
  11                     0
  12                     0
  13                     0
  14                     0
  15     -0.25825132504216
  16                     0
  17                     0
  18     -0.22477926718718
  19                     0
  20                     0
  21                     0
  22                     0
  23                     0
  24    -0.055052446076938
  25                     0
  26                     0
  27    -0.010795555251946
  28                     0
  29                     0
  30                     0
  31                     0
  32                     0
  33     0.055052446076938
  34                     0
  35                     0
  36     0.010795555251946
  37                     0
  38                     0
  39                     0
  40                     0
  41                     0
  42                     0
  43                     0
  44                     0
  45                     0
  46      -0.3462280689112
  47                     0
  48                     0
  49     -0.26615590965007
  50                     0
  51                     0
  52                     0
  53                     0
  54                     0
  55       0.3462280689112
  56                     0
  57                     0
  58      0.26615590965007
  59                     0
  60                     0
  61                     0
  62                     0
  63                     0
  64                     0
  65                     0
  66                     0
  67                     0
  68      0.36041069336791
  69                     0
  70                     0
  71      0.25527730577214
  72                     0
  73                     0
  74                     0
  75                     0
  76                     0
  77     -0.36041069336791
  78                     0
  79                     0
  80     -0.25527730577214
  81                     0
  82                     0
  83                     0
  84                     0
  85                     0
  86                     0
  87                     0
  88                     0
  89                     0
  90                     0
  91                     0
  92                     0
 Sym= Au
 Ene=               6
 Spin= Alpha
 Occup=    1.00000
   1                     0
   2                     0
   3                     0
   4                     0
   5                     0
   6      0.17943971967909
   7                     0
   8                     0
   9      0.11931282076263
  10                     0
  11                     0
  12                     0
  13                     0
  14                     0
  15      0.17943971967909
  16                     0
  17                     0
  18      0.11931282076263
  19                     0
  20                     0
  21                     0
  22                     0
  23                     0
  24     -0.33459519778429
  25                     0
  26                     0
  27     -0.27783163387783
  28                     0
  29                     0
  30                     0
  31                     0
  32                     0
  33     -0.33459519778429
  34                     0
  35                     0
  36     -0.27783163387783
  37                     0
  38                     0
  39                     0
  40                     0
  41                     0
  42                     0
  43                     0
  44                     0
  45                     0
  46      0.37781631523588
  47                     0
  48                     0
  49      0.31104943059895
  50                     0
  51                     0
  52                     0
  53                     0
  54                     0
  55      0.37781631523588
  56                     0
  57                     0
  58      0.31104943059895
  59                     0
  60                     0
  61                     0
  62                     0
  63                     0
  64                     0
  65                     0
  66                     0
  67                     0
  68      -0.2853699262731
  69                     0
  70                     0
  71     -0.19014625873607
  72                     0
  73                     0
  74                     0
  75                     0
  76                     0
  77      -0.2853699262731
  78                     0
  79                     0
  80     -0.19014625873607
  81                     0
  82                     0
  83                     0
  84                     0
  85                     0
  86                     0
  87                     0
  88                     0
  89                     0
  90                     0
  91                     0
  92                     0
 Sym= Bg
 Ene=               7
 Spin= Alpha
 Occup=    1.00000
   1                     0
   2                     0
   3                     0
   4                     0
   5                     0
   6      0.42628882005029
   7                     0
   8                     0
   9      0.33683534169151
  10                     0
  11                     0
  12                     0
  13                     0
  14                     0
  15     -0.42628882005029
  16                     0
  17                     0
  18     -0.33683534169151
  19                     0
  20                     0
  21                     0
  22                     0
  23                     0
  24     -0.37952796728145
  25                     0
  26                     0
  27     -0.28686903560191
  28                     0
  29                     0
  30                     0
  31                     0
  32                     0
  33      0.37952796728145
  34                     0
  35                     0
  36      0.28686903560191
  37                     0
  38                     0
  39                     0
  40                     0
  41                     0
  42                     0
  43                     0
  44                     0
  45                     0
  46      0.23560509634089
  47                     0
  48                     0
  49      0.19740900649331
  50                     0
  51                     0
  52                     0
  53                     0
  54                     0
  55     -0.23560509634089
  56                     0
  57                     0
  58     -0.19740900649331
  59                     0
  60                     0
  61                     0
  62                     0
  63                     0
  64                     0
  65                     0
  66                     0
  67                     0
  68     -0.14562996579672
  69                     0
  70                     0
  71    -0.091137977878326
  72                     0
  73                     0
  74                     0
  75                     0
  76                     0
  77      0.14562996579672
  78                     0
  79                     0
  80     0.091137977878326
  81                     0
  82                     0
  83                     0
  84                     0
  85                     0
  86                     0
  87                     0
  88                     0
  89                     0
  90                     0
  91                     0
  92                     0
