 &FCI NORB=   8,NELEC= 8,MS2=0,
  ORBSYM=1,1,1,1,1,1,1,1,
  ISYM=1,
 &END
 0.2770712346885705    1    1    1    1
 0.2251075838738271    1    1    2    2
 -0.04935533177042889    1    1    3    1
 0.2155329712812191    1    1    3    3
 0.05247850986588012    1    1    4    2
 0.2454859196034422    1    1    4    4
 0.002927224757792494    1    1    5    1
 -0.04229345799641145    1    1    5    3
 0.2465238107593391    1    1    5    5
 -0.007779429044331154    1    1    6    2
 0.04178865615240278    1    1    6    4
 0.2160120040320016    1    1    6    6
 0.003937946956075448    1    1    7    1
 0.006464651516892157    1    1    7    3
 0.05327457452705248    1    1    7    5
 0.2342667781969083    1    1    7    7
 0.00323206219509444    1    1    8    2
 0.004396595480875024    1    1    8    4
 0.04602642605437712    1    1    8    6
 0.2874509889273967    1    1    8    8
 0.08782726934501804    2    1    2    1
 0.05513821642781384    2    1    3    2
 0.03297121690855377    2    1    4    1
 -0.0721112357308305    2    1    4    3
 -0.02978229517773796    2    1    5    2
 -0.04226560928528898    2    1    5    4
 -0.005134889057432977    2    1    6    1
 -0.01883127707271248    2    1    6    3
 0.07450640097002441    2    1    6    5
 -0.001504128271551458    2    1    7    2
 -0.02951400828717016    2    1    7    4
 -0.05866984142488313    2    1    7    6
 -0.002310223176894173    2    1    8    1
 0.004167722408455198    2    1    8    3
 0.03312708983680531    2    1    8    5
 0.08754772623986867    2    1    8    7
 0.2251075838738271    2    2    1    1
 0.2363675721137772    2    2    2    2
 0.01030072206314841    2    2    3    1
 0.2221300285654184    2    2    3    3
 0.002232583863366062    2    2    4    2
 0.2221661212591375    2    2    4    4
 -0.02001562984824309    2    2    5    1
 -0.006246621620770736    2    2    5    3
 0.2254253290632753    2    2    5    5
 -0.02159975126810797    2    2    6    2
 0.006432935322338859    2    2    6    4
 0.2283496096864893    2    2    6    6
 0.0006927930385966982    2    2    7    1
 0.02061194179441324    2    2    7    3
 0.0008471315767554031    2    2    7    5
 0.2403895090019154    2    2    7    7
 0.0001507575558937029    2    2    8    2
 -0.01790133064556655    2    2    8    4
 -0.00988092193408611    2    2    8    6
 0.2286404334673619    2    2    8    8
 -0.04935533177042893    3    1    1    1
 0.01030072206314841    3    1    2    2
 0.0563907147818655    3    1    3    1
 0.006820269971207456    3    1    3    3
 -0.04842376373234984    3    1    4    2
 -0.02272165201357164    3    1    4    4
 -0.02041388626966007    3    1    5    1
 0.03343191352898126    3    1    5    3
 -0.0203776670252659    3    1    5    5
 -0.0131107997162195    3    1    6    2
 -0.0330301271824168    3    1    6    4
 0.01217434386132822    3    1    6    6
 -0.001709219389571635    3    1    7    1
 0.01320283798799624    3    1    7    3
 -0.05048063230349542    3    1    7    5
 0.005322332955895715    3    1    7    7
 -0.001732565092222067    3    1    8    2
 -0.01989499213667282    3    1    8    4
 -0.05294333581697076    3    1    8    6
 -0.05615285935340968    3    1    8    8
 0.05513821642781383    3    2    2    1
 0.0815402146936615    3    2    3    2
 -0.02334997700551961    3    2    4    1
 -0.06361371354925979    3    2    4    3
 -0.001886616867620152    3    2    5    2
 -0.03942101576794466    3    2    5    4
 -0.01438335351945644    3    2    6    1
 0.008335406500733049    3    2    6    3
 0.06861135551409023    3    2    6    5
 0.01177730610166888    3    2    7    2
 -0.001802944786516852    3    2    7    4
 -0.08270402097109521    3    2    7    6
 -0.001628821761238987    3    2    8    1
 0.01354261171750241    3    2    8    3
 -0.02124508167530297    3    2    8    5
 0.05100017026184008    3    2    8    7
 0.2155329712812191    3    3    1    1
 0.2221300285654184    3    3    2    2
 0.006820269971207438    3    3    3    1
 0.2293178572410853    3    3    3    3
 -0.01307086582590755    3    3    4    2
 0.2164051083523708    3    3    4    4
 0.007862895745952529    3    3    5    1
 -0.001923482982292488    3    3    5    3
 0.2198721399033322    3    3    5    5
 -0.00224262011435679    3    3    6    2
 0.001707571246428997    3    3    6    4
 0.2333924668140395    3    3    6    6
 0.01111808754787498    3    3    7    1
 0.001707300404289381    3    3    7    3
 -0.01259440901468915    3    3    7    5
 0.2258607155735634    3    3    7    7
 0.01036615447573994    3    3    8    2
 0.007305711533474887    3    3    8    4
 -0.006220824007052202    3    3    8    6
 0.2190633019472099    3    3    8    8
 0.03297121690855378    4    1    2    1
 -0.02334997700551961    4    1    3    2
 0.05414945839158045    4    1    4    1
 -0.01206017904813723    4    1    4    3
 -0.02396668593323142    4    1    5    2
 -0.003846793696412263    4    1    5    4
 0.01144918676935895    4    1    6    1
 -0.02424889988669295    4    1    6    3
 0.009351485784975272    4    1    6    5
 -0.01379117501347735    4    1    7    2
 -0.02425426208366688    4    1    7    4
 0.02116769290322211    4    1    7    6
 0.001050177557503143    4    1    8    1
 -0.0112638018675323    4    1    8    3
 0.05263979246324071    4    1    8    5
 0.03696523489691671    4    1    8    7
 0.05247850986588015    4    2    1    1
 0.002232583863366065    4    2    2    2
 -0.04842376373234984    4    2    3    1
 -0.01307086582590758    4    2    3    3
 0.05764460082914389    4    2    4    2
 0.02646480856996819    4    2    4    4
 -0.005732613118139435    4    2    5    1
 -0.03195215326157218    4    2    5    3
 0.02365372977789239    4    2    5    5
 -0.002701013602644484    4    2    6    2
 0.03240709148637708    4    2    6    4
 -0.01620190519570448    4    2    6    6
 -0.009675576235244151    4    2    7    1
 0.002757456197993465    4    2    7    3
 0.05805544448490686    4    2    7    5
 0.007229756346981345    4    2    7    7
 -0.009120365209258099    4    2    8    2
 -0.004073441800491557    4    2    8    4
 0.04521845430430816    4    2    8    6
 0.05911686595473951    4    2    8    8
 -0.07211123573083049    4    3    2    1
 -0.06361371354925978    4    3    3    2
 -0.01206017904813723    4    3    4    1
 0.07835201789245239    4    3    4    3
 0.001149321751604304    4    3    5    2
 0.04008583396635733    4    3    5    4
 -0.007372197779484287    4    3    6    1
 -0.002446208938495112    4    3    6    3
 -0.08002780638238943    4    3    6    5
 0.003256082728867614    4    3    7    2
 0.003013082773919148    4    3    7    4
 0.06562093485166111    4    3    7    6
 -0.00777799279161524    4    3    8    1
 0.006598105523148053    4    3    8    3
 -0.0136675661036756    4    3    8    5
 -0.07119217165670116    4    3    8    7
 0.2454859196034422    4    4    1    1
 0.2221661212591375    4    4    2    2
 -0.02272165201357166    4    4    3    1
 0.2164051083523708    4    4    3    3
 0.02646480856996817    4    4    4    2
 0.2366547623886353    4    4    4    4
 -0.00145749829036526    4    4    5    1
 -0.01145694099579437    4    4    5    3
 0.2364325163304803    4    4    5    5
 0.002959410445052721    4    4    6    2
 0.01330882197462686    4    4    6    4
 0.2183552995976992    4    4    6    6
 -0.007332824616566465    4    4    7    1
 -0.001440858760825058    4    4    7    3
 0.02718221297642538    4    4    7    5
 0.2293728687248593    4    4    7    7
 -0.006276452467616497    4    4    8    2
 -0.001301647629748122    4    4    8    4
 0.02143481717728702    4    4    8    6
 0.2539392137946941    4    4    8    8
 0.002927224757792513    5    1    1    1
 -0.0200156298482431    5    1    2    2
 -0.02041388626966006    5    1    3    1
 0.007862895745952527    5    1    3    3
 -0.00573261311813945    5    1    4    2
 -0.001457498290365257    5    1    4    4
 0.04203349740021117    5    1    5    1
 -0.006534541052953479    5    1    5    3
 -0.001338672299469799    5    1    5    5
 0.02680939322289085    5    1    6    2
 0.005430930598721231    5    1    6    4
 0.004439055225084548    5    1    6    6
 0.01654870717584664    5    1    7    1
 -0.02718939229773455    5    1    7    3
 -0.003573140538675892    5    1    7    5
 -0.02052753788201213    5    1    7    7
 0.01607884792810122    5    1    8    2
 0.04017386538701451    5    1    8    4
 0.02087919361029969    5    1    8    6
 0.004736666994388319    5    1    8    8
 -0.02978229517773795    5    2    2    1
 -0.001886616867620147    5    2    3    2
 -0.02396668593323142    5    2    4    1
 0.001149321751604309    5    2    4    3
 0.04059180176941793    5    2    5    2
 0.009062154684688448    5    2    5    4
 0.02098948523213547    5    2    6    1
 0.02917453503315121    5    2    6    3
 -0.002204253406382009    5    2    6    5
 -0.005654804188760491    5    2    7    2
 0.03885599888382544    5    2    7    4
 0.004704167590237444    5    2    7    6
 0.01488621550528036    5    2    8    1
 -0.01920821956376126    5    2    8    3
 -0.02274694921233695    5    2    8    5
 -0.0315057440261944    5    2    8    7
 -0.04229345799641145    5    3    1    1
 -0.00624662162077073    5    3    2    2
 0.03343191352898126    5    3    3    1
 -0.001923482982292503    5    3    3    3
 -0.03195215326157218    5    3    4    2
 -0.01145694099579437    5    3    4    4
 -0.006534541052953489    5    3    5    1
 0.04467805726247162    5    3    5    3
 -0.01202643911363958    5    3    5    5
 0.01865041694455605    5    3    6    2
 -0.04265077786744563    5    3    6    4
 -0.0008007452195924357    5    3    6    6
 -0.02044211784230605    5    3    7    1
 -0.01542671426888618    5    3    7    3
 -0.03208241179771859    5    3    7    5
 -0.009675859960941094    5    3    7    7
 -0.01852177611504798    5    3    8    2
 -0.009002380586094556    5    3    8    4
 -0.03158176062298352    5    3    8    6
 -0.04708529936779642    5    3    8    8
 -0.04226560928528898    5    4    2    1
 -0.03942101576794466    5    4    3    2
 -0.003846793696412266    5    4    4    1
 0.04008583396635732    5    4    4    3
 0.009062154684688444    5    4    5    2
 0.052557657003751    5    4    5    4
 0.004338098031852507    5    4    6    1
 -0.02506242242033394    5    4    6    3
 -0.04101482336899927    5    4    6    5
 0.0267150862446835    5    4    7    2
 0.01171155370901116    5    4    7    4
 0.04087794817607234    5    4    7    6
 0.03161448380599594    5    4    8    1
 -0.007254644240262564    5    4    8    3
 -0.004719652243375135    5    4    8    5
 -0.04172287448883098    5    4    8    7
 0.2465238107593391    5    5    1    1
 0.2254253290632753    5    5    2    2
 -0.02037766702526593    5    5    3    1
 0.2198721399033322    5    5    3    3
 0.02365372977789241    5    5    4    2
 0.2364325163304803    5    5    4    4
 -0.001338672299469799    5    5    5    1
 -0.01202643911363955    5    5    5    3
 0.2423951324350192    5    5    5    5
 0.001176787059933846    5    5    6    2
 0.01072657644344123    5    5    6    4
 0.2247679591170226    5    5    6    6
 -0.005628181992085068    5    5    7    1
 -0.002559103145289699    5    5    7    3
 0.02499294509296346    5    5    7    5
 0.2348734293004181    5    5    7    7
 -0.006623680148422779    5    5    8    2
 -0.001352589419744382    5    5    8    4
 0.01954498499019039    5    5    8    6
 0.2572466670819579    5    5    8    8
 -0.005134889057432971    6    1    2    1
 -0.01438335351945644    6    1    3    2
 0.01144918676935896    6    1    4    1
 -0.007372197779484285    6    1    4    3
 0.02098948523213547    6    1    5    2
 0.004338098031852504    6    1    5    4
 0.02531600573421247    6    1    6    1
 0.0115932842745788    6    1    6    3
 0.005137183100399522    6    1    6    5
 -0.0140172914230402    6    1    7    2
 0.01940954303014474    6    1    7    4
 0.01622906885653441    6    1    7    6
 0.01316989553216805    6    1    8    1
 -0.02391448116576901    6    1    8    3
 0.01263398474124088    6    1    8    5
 -0.003883154389473597    6    1    8    7
 -0.007779429044331136    6    2    1    1
 -0.02159975126810795    6    2    2    2
 -0.0131107997162195    6    2    3    1
 -0.002242620114356815    6    2    3    3
 -0.002701013602644488    6    2    4    2
 0.002959410445052708    6    2    4    4
 0.02680939322289086    6    2    5    1
 0.01865041694455605    6    2    5    3
 0.001176787059933831    6    2    5    5
 0.03938388537708194    6    2    6    2
 -0.01753019831152765    6    2    6    4
 -0.006107075651450938    6    2    6    6
 -0.01066794489017344    6    2    7    1
 -0.03682370523336937    6    2    7    3
 -0.0003136711244979013    6    2    7    5
 -0.0229425494570713    6    2    7    7
 -0.009033288234354061    6    2    8    2
 0.02399639086028847    6    2    8    4
 0.01417523878471541    6    2    8    6
 -0.006626184573926724    6    2    8    8
 -0.01883127707271248    6    3    2    1
 0.008335406500733049    6    3    3    2
 -0.02424889988669294    6    3    4    1
 -0.002446208938495112    6    3    4    3
 0.02917453503315121    6    3    5    2
 -0.02506242242033395    6    3    5    4
 0.0115932842745788    6    3    6    1
 0.05082559835056352    6    3    6    3
 0.001892018077795665    6    3    6    5
 -0.03001057415063589    6    3    7    2
 0.02630236898037222    6    3    7    4
 -0.005979459833680066    6    3    7    6
 -0.02093474568327799    6    3    8    1
 -0.007740626405604542    6    3    8    3
 -0.0231788150643542    6    3    8    5
 -0.02127064776179681    6    3    8    7
 0.0417886561524028    6    4    1    1
 0.006432935322338859    6    4    2    2
 -0.0330301271824168    6    4    3    1
 0.001707571246429002    6    4    3    3
 0.03240709148637709    6    4    4    2
 0.01330882197462684    6    4    4    4
 0.005430930598721231    6    4    5    1
 -0.04265077786744564    6    4    5    3
 0.01072657644344124    6    4    5    5
 -0.01753019831152765    6    4    6    2
 0.04275210209254879    6    4    6    4
 -5.778404584149983e-05    6    4    6    6
 0.01853446774177703    6    4    7    1
 0.01621548885073857    6    4    7    3
 0.03234461125791024    6    4    7    5
 0.009756005414646789    6    4    7    7
 0.017956072152892    6    4    8    2
 0.008037257069945115    6    4    8    4
 0.03132635815170961    6    4    8    6
 0.04706428122346401    6    4    8    8
 0.07450640097002442    6    5    2    1
 0.06861135551409023    6    5    3    2
 0.009351485784975282    6    5    4    1
 -0.08002780638238945    6    5    4    3
 -0.002204253406382007    6    5    5    2
 -0.04101482336899928    6    5    5    4
 0.005137183100399527    6    5    6    1
 0.001892018077795662    6    5    6    3
 0.0869672260160326    6    5    6    5
 -0.0005565827253927571    6    5    7    2
 -0.001132615289951432    6    5    7    4
 -0.07268775714957823    6    5    7    6
 0.009555511455209578    6    5    8    1
 -0.006782241699078097    6    5    8    3
 0.0115481570511786    6    5    8    5
 0.07504129621209149    6    5    8    7
 0.2160120040320017    6    6    1    1
 0.2283496096864893    6    6    2    2
 0.01217434386132822    6    6    3    1
 0.2333924668140395    6    6    3    3
 -0.01620190519570449    6    6    4    2
 0.2183552995976992    6    6    4    4
 0.004439055225084572    6    6    5    1
 -0.0008007452195924504    6    6    5    3
 0.2247679591170225    6    6    5    5
 -0.006107075651450937    6    6    6    2
 -5.77840458415059e-05    6    6    6    4
 0.2449527185377163    6    6    6    6
 0.0128483462239336    6    6    7    1
 0.00448397689009496    6    6    7    3
 -0.02001443831605792    6    6    7    5
 0.2356267787724618    6    6    7    7
 0.01205814090689603    6    6    8    2
 0.006549997147793605    6    6    8    4
 -0.01251987669645204    6    6    8    6
 0.2219727759300623    6    6    8    8
 0.003937946956075454    7    1    1    1
 0.000692793038596714    7    1    2    2
 -0.001709219389571631    7    1    3    1
 0.01111808754787498    7    1    3    3
 -0.009675576235244151    7    1    4    2
 -0.00733282461656647    7    1    4    4
 0.01654870717584663    7    1    5    1
 -0.02044211784230605    7    1    5    3
 -0.005628181992085072    7    1    5    5
 -0.01066794489017344    7    1    6    2
 0.01853446774177704    7    1    6    4
 0.01284834622393362    7    1    6    6
 0.02805897771609684    7    1    7    1
 0.007844769559488766    7    1    7    3
 -0.01103594711929567    7    1    7    5
 0.0002522026608603198    7    1    7    7
 0.02632975508674395    7    1    8    2
 0.01847968612169688    7    1    8    4
 0.001971308022572325    7    1    8    6
 0.003870963462323499    7    1    8    8
 -0.001504128271551451    7    2    2    1
 0.01177730610166889    7    2    3    2
 -0.01379117501347735    7    2    4    1
 0.003256082728867613    7    2    4    3
 -0.005654804188760489    7    2    5    2
 0.02671508624468351    7    2    5    4
 -0.0140172914230402    7    2    6    1
 -0.03001057415063588    7    2    6    3
 -0.0005565827253927553    7    2    6    5
 0.03865341288712443    7    2    7    2
 -0.002552164793246359    7    2    7    4
 -0.01355393493379088    7    2    7    6
 0.02535049489819979    7    2    8    1
 0.01032499814523292    7    2    8    3
 -0.0150794117927611    7    2    8    5
 -0.002874160837884039    7    2    8    7
 0.006464651516892149    7    3    1    1
 0.02061194179441326    7    3    2    2
 0.01320283798799623    7    3    3    1
 0.001707300404289384    7    3    3    3
 0.002757456197993468    7    3    4    2
 -0.001440858760825046    7    3    4    4
 -0.02718939229773455    7    3    5    1
 -0.01542671426888619    7    3    5    3
 -0.002559103145289681    7    3    5    5
 -0.03682370523336938    7    3    6    2
 0.01621548885073857    7    3    6    4
 0.004483976890094976    7    3    6    6
 0.007844769559488764    7    3    7    1
 0.03625842609094438    7    3    7    3
 0.0004886620213060476    7    3    7    5
 0.02230647366540412    7    3    7    7
 0.007411216821008169    7    3    8    2
 -0.02510151277386854    7    3    8    4
 -0.01481653531240328    7    3    8    6
 0.005304083301349256    7    3    8    8
 -0.02951400828717015    7    4    2    1
 -0.001802944786516854    7    4    3    2
 -0.0242542620836669    7    4    4    1
 0.003013082773919154    7    4    4    3
 0.03885599888382543    7    4    5    2
 0.01171155370901117    7    4    5    4
 0.01940954303014474    7    4    6    1
 0.02630236898037223    7    4    6    3
 -0.001132615289951431    7    4    6    5
 -0.002552164793246349    7    4    7    2
 0.03991579483868934    7    4    7    4
 0.004445833668546952    7    4    7    6
 0.01755265580792713    7    4    8    1
 -0.01980457295587242    7    4    8    3
 -0.02323568183162183    7    4    8    5
 -0.03222534760237874    7    4    8    7
 0.05327457452705243    7    5    1    1
 0.0008471315767553801    7    5    2    2
 -0.05048063230349541    7    5    3    1
 -0.01259440901468914    7    5    3    3
 0.05805544448490685    7    5    4    2
 0.02718221297642538    7    5    4    4
 -0.003573140538675889    7    5    5    1
 -0.03208241179771858    7    5    5    3
 0.02499294509296347    7    5    5    5
 -0.0003136711244979048    7    5    6    2
 0.03234461125791024    7    5    6    4
 -0.02001443831605796    7    5    6    6
 -0.01103594711929567    7    5    7    1
 0.0004886620213060415    7    5    7    3
 0.06363121803304821    7    5    7    5
 0.00569233825848129    7    5    7    7
 -0.01114104527485467    7    5    8    2
 -0.004471548101933395    7    5    8    4
 0.04946021887770415    7    5    8    6
 0.06254597012094393    7    5    8    8
 -0.05866984142488313    7    6    2    1
 -0.08270402097109522    7    6    3    2
 0.02116769290322212    7    6    4    1
 0.06562093485166111    7    6    4    3
 0.004704167590237438    7    6    5    2
 0.04087794817607235    7    6    5    4
 0.01622906885653441    7    6    6    1
 -0.005979459833680074    7    6    6    3
 -0.07268775714957823    7    6    6    5
 -0.01355393493379087    7    6    7    2
 0.004445833668546954    7    6    7    4
 0.08984020690121056    7    6    7    6
 0.001954827043688821    7    6    8    1
 -0.01586063288391014    7    6    8    3
 0.02284524586167242    7    6    8    5
 -0.0561097819376194    7    6    8    7
 0.2342667781969083    7    7    1    1
 0.2403895090019154    7    7    2    2
 0.005322332955895706    7    7    3    1
 0.2258607155735635    7    7    3    3
 0.007229756346981349    7    7    4    2
 0.2293728687248593    7    7    4    4
 -0.02052753788201214    7    7    5    1
 -0.009675859960941087    7    7    5    3
 0.2348734293004182    7    7    5    5
 -0.02294254945707132    7    7    6    2
 0.009756005414646784    7    7    6    4
 0.2356267787724618    7    7    6    6
 0.0002522026608603111    7    7    7    1
 0.02230647366540412    7    7    7    3
 0.00569233825848131    7    7    7    5
 0.2524184549090585    7    7    7    7
 -0.0005217782540931205    7    7    8    2
 -0.02007144451396157    7    7    8    4
 -0.00796441149356987    7    7    8    6
 0.2433232070285727    7    7    8    8
 -0.002310223176894168    8    1    2    1
 -0.001628821761238981    8    1    3    2
 0.001050177557503137    8    1    4    1
 -0.007777992791615241    8    1    4    3
 0.01488621550528036    8    1    5    2
 0.03161448380599593    8    1    5    4
 0.01316989553216804    8    1    6    1
 -0.02093474568327798    8    1    6    3
 0.009555511455209583    8    1    6    5
 0.02535049489819979    8    1    7    2
 0.01755265580792712    8    1    7    4
 0.001954827043688807    8    1    7    6
 0.0422820429675937    8    1    8    1
 -0.01657660915972386    8    1    8    3
 0.001662873890494708    8    1    8    5
 -0.002196019048500278    8    1    8    7
 0.003232062195094452    8    2    1    1
 0.0001507575558937129    8    2    2    2
 -0.001732565092222063    8    2    3    1
 0.01036615447573994    8    2    3    3
 -0.00912036520925809    8    2    4    2
 -0.006276452467616497    8    2    4    4
 0.01607884792810122    8    2    5    1
 -0.01852177611504798    8    2    5    3
 -0.006623680148422774    8    2    5    5
 -0.009033288234354061    8    2    6    2
 0.017956072152892    8    2    6    4
 0.01205814090689602    8    2    6    6
 0.02632975508674393    8    2    7    1
 0.007411216821008166    8    2    7    3
 -0.01114104527485468    8    2    7    5
 -0.0005217782540931255    8    2    7    7
 0.025558301761676    8    2    8    2
 0.01840251129616363    8    2    8    4
 0.001952886942789542    8    2    8    6
 0.003166247722225143    8    2    8    8
 0.004167722408455189    8    3    2    1
 0.01354261171750241    8    3    3    2
 -0.01126380186753229    8    3    4    1
 0.006598105523148054    8    3    4    3
 -0.01920821956376126    8    3    5    2
 -0.007254644240262556    8    3    5    4
 -0.023914481165769    8    3    6    1
 -0.007740626405604544    8    3    6    3
 -0.006782241699078096    8    3    6    5
 0.01032499814523292    8    3    7    2
 -0.01980457295587241    8    3    7    4
 -0.01586063288391014    8    3    7    6
 -0.01657660915972387    8    3    8    1
 0.02450450444155329    8    3    8    3
 -0.01336597006572825    8    3    8    5
 0.003031711916594333    8    3    8    7
 0.004396595480875062    8    4    1    1
 -0.01790133064556655    8    4    2    2
 -0.01989499213667282    8    4    3    1
 0.00730571153347488    8    4    3    3
 -0.00407344180049155    8    4    4    2
 -0.001301647629748139    8    4    4    4
 0.04017386538701451    8    4    5    1
 -0.009002380586094542    8    4    5    3
 -0.001352589419744388    8    4    5    5
 0.02399639086028847    8    4    6    2
 0.008037257069945103    8    4    6    4
 0.006549997147793593    8    4    6    6
 0.01847968612169687    8    4    7    1
 -0.02510151277386854    8    4    7    3
 -0.004471548101933404    8    4    7    5
 -0.02007144451396157    8    4    7    7
 0.01840251129616361    8    4    8    2
 0.04169821958812361    8    4    8    4
 0.02180725511757122    8    4    8    6
 0.006530402651696557    8    4    8    8
 0.03312708983680532    8    5    2    1
 -0.02124508167530297    8    5    3    2
 0.05263979246324073    8    5    4    1
 -0.01366756610367562    8    5    4    3
 -0.02274694921233696    8    5    5    2
 -0.004719652243375142    8    5    5    4
 0.01263398474124086    8    5    6    1
 -0.0231788150643542    8    5    6    3
 0.01154815705117858    8    5    6    5
 -0.01507941179276109    8    5    7    2
 -0.02323568183162183    8    5    7    4
 0.02284524586167242    8    5    7    6
 0.001662873890494705    8    5    8    1
 -0.01336597006572824    8    5    8    3
 0.05672628968698572    8    5    8    5
 0.03993430981267621    8    5    8    7
 0.04602642605437716    8    6    1    1
 -0.009880921934086141    8    6    2    2
 -0.05294333581697076    8    6    3    1
 -0.006220824007052251    8    6    3    3
 0.04521845430430815    8    6    4    2
 0.02143481717728699    8    6    4    4
 0.02087919361029968    8    6    5    1
 -0.03158176062298351    8    6    5    3
 0.01954498499019037    8    6    5    5
 0.01417523878471541    8    6    6    2
 0.03132635815170962    8    6    6    4
 -0.01251987669645204    8    6    6    6
 0.00197130802257232    8    6    7    1
 -0.01481653531240327    8    6    7    3
 0.04946021887770417    8    6    7    5
 -0.007964411493569881    8    6    7    7
 0.001952886942789534    8    6    8    2
 0.02180725511757122    8    6    8    4
 0.05419520643378127    8    6    8    6
 0.05536009973755659    8    6    8    8
 0.08754772623986867    8    7    2    1
 0.05100017026184008    8    7    3    2
 0.03696523489691671    8    7    4    1
 -0.07119217165670116    8    7    4    3
 -0.03150574402619441    8    7    5    2
 -0.041722874488831    8    7    5    4
 -0.003883154389473603    8    7    6    1
 -0.02127064776179681    8    7    6    3
 0.07504129621209149    8    7    6    5
 -0.002874160837884037    8    7    7    2
 -0.03222534760237875    8    7    7    4
 -0.05610978193761942    8    7    7    6
 -0.002196019048500275    8    7    8    1
 0.003031711916594356    8    7    8    3
 0.03993430981267616    8    7    8    5
 0.09338678051944238    8    7    8    7
 0.2874509889273966    8    8    1    1
 0.2286404334673619    8    8    2    2
 -0.0561528593534097    8    8    3    1
 0.2190633019472099    8    8    3    3
 0.05911686595473951    8    8    4    2
 0.2539392137946941    8    8    4    4
 0.00473666699438832    8    8    5    1
 -0.04708529936779641    8    8    5    3
 0.2572466670819579    8    8    5    5
 -0.006626184573926729    8    8    6    2
 0.047064281223464    8    8    6    4
 0.2219727759300621    8    8    6    6
 0.003870963462323481    8    8    7    1
 0.005304083301349262    8    8    7    3
 0.06254597012094394    8    8    7    5
 0.2433232070285726    8    8    7    7
 0.00316624772222513    8    8    8    2
 0.006530402651696536    8    8    8    4
 0.05536009973755655    8    8    8    6
 0.3084885679095271    8    8    8    8
 -1.928378279621219    1    1  0  0
 -1.142711604255427e-15    2    1  0  0
 -1.777519134799429    2    2  0  0
 0.1106410106266655    3    1  0  0
 -1.840469332681906e-15    3    2  0  0
 -1.67594676604646    3    3  0  0
 -0.1384332880766353    4    2  0  0
 1.384893754279863e-15    4    3  0  0
 -1.680332432082639    4    4  0  0
 0.02423875264835341    5    1  0  0
 0.1400237928869277    5    3  0  0
 -1.953481624013153e-15    5    4  0  0
 -1.565373067682508    5    5  0  0
 0.0716620797834694    6    2  0  0
 2.396839139816792e-15    6    3  0  0
 -0.1087552796061403    6    4  0  0
 -1.413123742743836    6    6  0  0
 -0.02560542710946643    7    1  0  0
 -3.105065358858004e-15    7    2  0  0
 -0.04130655252319577    7    3  0  0
 -0.1374268636680366    7    5  0  0
 3.132561242647694e-15    7    6  0  0
 -1.403551537843726    7    7  0  0
 -1.822576962896537e-15    8    1  0  0
 -0.008258547366352438    8    2  0  0
 -1.380569750432946e-15    8    3  0  0
 0.01280022187573788    8    4  0  0
 3.273977849886682e-15    8    5  0  0
 -0.107326839554515    8    6  0  0
 1.042161368380837e-15    8    7  0  0
 -1.476373833251888    8    8  0  0
 -299.9858409636626  0  0  0  0
