[Molden Format]
made by pyscf v[2.0.1]
[Atoms] (AU)
C   1   6     1.37005144030967     0.00000000000000     0.00000000000000
C   2   6    -1.37005144030967     0.00000000000000     0.00000000000000
C   3   6     2.63616794376826     2.19297811229174     0.00000000000000
C   4   6    -2.63616794376826    -2.19297811229174     0.00000000000000
H   5   1     2.39050354757480    -1.76747489647394     0.00000000000000
H   6   1    -2.39050354757480     1.76747489647394     0.00000000000000
C   7   6     5.37627082438760     2.19297811229174     0.00000000000000
C   8   6    -5.37627082438760    -2.19297811229174     0.00000000000000
H   9   1     1.61571583650313     3.96045300876567     0.00000000000000
H   10   1    -1.61571583650313    -3.96045300876567     0.00000000000000
C   11   6     6.64238732784619     4.38595622458347     0.00000000000000
C   12   6    -6.64238732784619    -4.38595622458347     0.00000000000000
H   13   1     6.39672293165273     0.42550321581780     0.00000000000000
H   14   1    -6.39672293165273    -0.42550321581780     0.00000000000000
H   15   1     8.68329154237646     4.38595622458347     0.00000000000000
H   16   1    -8.68329154237646    -4.38595622458347     0.00000000000000
H   17   1     5.62193522058106     6.15343112105741     0.00000000000000
H   18   1    -5.62193522058106    -6.15343112105741     0.00000000000000
[GTO]
1 0
 s    6 1.00
             3047.5249  0.0018347001629433
             457.36951    0.01403730124668
             103.94869   0.068842606114048
             29.210155    0.23218442062076
              9.286663    0.46794134155879
              3.163927    0.36231203217765
 s    3 1.00
             7.8682724   -0.11933240861517
             1.8812885   -0.16085421161283
             0.5442493     1.1434564825515
 s    1 1.00
             0.1687144                   1
 p    3 1.00
             7.8682724   0.068999095584993
             1.8812885    0.31642397975315
             0.5442493    0.74430825237435
 p    1 1.00
             0.1687144                   1

2 0
 s    6 1.00
             3047.5249  0.0018347001629433
             457.36951    0.01403730124668
             103.94869   0.068842606114048
             29.210155    0.23218442062076
              9.286663    0.46794134155879
              3.163927    0.36231203217765
 s    3 1.00
             7.8682724   -0.11933240861517
             1.8812885   -0.16085421161283
             0.5442493     1.1434564825515
 s    1 1.00
             0.1687144                   1
 p    3 1.00
             7.8682724   0.068999095584993
             1.8812885    0.31642397975315
             0.5442493    0.74430825237435
 p    1 1.00
             0.1687144                   1

3 0
 s    6 1.00
             3047.5249  0.0018347001629433
             457.36951    0.01403730124668
             103.94869   0.068842606114048
             29.210155    0.23218442062076
              9.286663    0.46794134155879
              3.163927    0.36231203217765
 s    3 1.00
             7.8682724   -0.11933240861517
             1.8812885   -0.16085421161283
             0.5442493     1.1434564825515
 s    1 1.00
             0.1687144                   1
 p    3 1.00
             7.8682724   0.068999095584993
             1.8812885    0.31642397975315
             0.5442493    0.74430825237435
 p    1 1.00
             0.1687144                   1

4 0
 s    6 1.00
             3047.5249  0.0018347001629433
             457.36951    0.01403730124668
             103.94869   0.068842606114048
             29.210155    0.23218442062076
              9.286663    0.46794134155879
              3.163927    0.36231203217765
 s    3 1.00
             7.8682724   -0.11933240861517
             1.8812885   -0.16085421161283
             0.5442493     1.1434564825515
 s    1 1.00
             0.1687144                   1
 p    3 1.00
             7.8682724   0.068999095584993
             1.8812885    0.31642397975315
             0.5442493    0.74430825237435
 p    1 1.00
             0.1687144                   1

5 0
 s    3 1.00
             18.731137    0.03349459952309
             2.8253937    0.23472694665786
             0.6401217    0.81375731841339
 s    1 1.00
             0.1612778                   1

6 0
 s    3 1.00
             18.731137    0.03349459952309
             2.8253937    0.23472694665786
             0.6401217    0.81375731841339
 s    1 1.00
             0.1612778                   1

7 0
 s    6 1.00
             3047.5249  0.0018347001629433
             457.36951    0.01403730124668
             103.94869   0.068842606114048
             29.210155    0.23218442062076
              9.286663    0.46794134155879
              3.163927    0.36231203217765
 s    3 1.00
             7.8682724   -0.11933240861517
             1.8812885   -0.16085421161283
             0.5442493     1.1434564825515
 s    1 1.00
             0.1687144                   1
 p    3 1.00
             7.8682724   0.068999095584993
             1.8812885    0.31642397975315
             0.5442493    0.74430825237435
 p    1 1.00
             0.1687144                   1

8 0
 s    6 1.00
             3047.5249  0.0018347001629433
             457.36951    0.01403730124668
             103.94869   0.068842606114048
             29.210155    0.23218442062076
              9.286663    0.46794134155879
              3.163927    0.36231203217765
 s    3 1.00
             7.8682724   -0.11933240861517
             1.8812885   -0.16085421161283
             0.5442493     1.1434564825515
 s    1 1.00
             0.1687144                   1
 p    3 1.00
             7.8682724   0.068999095584993
             1.8812885    0.31642397975315
             0.5442493    0.74430825237435
 p    1 1.00
             0.1687144                   1

9 0
 s    3 1.00
             18.731137    0.03349459952309
             2.8253937    0.23472694665786
             0.6401217    0.81375731841339
 s    1 1.00
             0.1612778                   1

10 0
 s    3 1.00
             18.731137    0.03349459952309
             2.8253937    0.23472694665786
             0.6401217    0.81375731841339
 s    1 1.00
             0.1612778                   1

11 0
 s    6 1.00
             3047.5249  0.0018347001629433
             457.36951    0.01403730124668
             103.94869   0.068842606114048
             29.210155    0.23218442062076
              9.286663    0.46794134155879
              3.163927    0.36231203217765
 s    3 1.00
             7.8682724   -0.11933240861517
             1.8812885   -0.16085421161283
             0.5442493     1.1434564825515
 s    1 1.00
             0.1687144                   1
 p    3 1.00
             7.8682724   0.068999095584993
             1.8812885    0.31642397975315
             0.5442493    0.74430825237435
 p    1 1.00
             0.1687144                   1

12 0
 s    6 1.00
             3047.5249  0.0018347001629433
             457.36951    0.01403730124668
             103.94869   0.068842606114048
             29.210155    0.23218442062076
              9.286663    0.46794134155879
              3.163927    0.36231203217765
 s    3 1.00
             7.8682724   -0.11933240861517
             1.8812885   -0.16085421161283
             0.5442493     1.1434564825515
 s    1 1.00
             0.1687144                   1
 p    3 1.00
             7.8682724   0.068999095584993
             1.8812885    0.31642397975315
             0.5442493    0.74430825237435
 p    1 1.00
             0.1687144                   1

13 0
 s    3 1.00
             18.731137    0.03349459952309
             2.8253937    0.23472694665786
             0.6401217    0.81375731841339
 s    1 1.00
             0.1612778                   1

14 0
 s    3 1.00
             18.731137    0.03349459952309
             2.8253937    0.23472694665786
             0.6401217    0.81375731841339
 s    1 1.00
             0.1612778                   1

15 0
 s    3 1.00
             18.731137    0.03349459952309
             2.8253937    0.23472694665786
             0.6401217    0.81375731841339
 s    1 1.00
             0.1612778                   1

16 0
 s    3 1.00
             18.731137    0.03349459952309
             2.8253937    0.23472694665786
             0.6401217    0.81375731841339
 s    1 1.00
             0.1612778                   1

17 0
 s    3 1.00
             18.731137    0.03349459952309
             2.8253937    0.23472694665786
             0.6401217    0.81375731841339
 s    1 1.00
             0.1612778                   1

18 0
 s    3 1.00
             18.731137    0.03349459952309
             2.8253937    0.23472694665786
             0.6401217    0.81375731841339
 s    1 1.00
             0.1612778                   1

[5d]
[7f]
[9g]

[MO]
 Sym= A
 Ene=               0
 Spin= Alpha
 Occup=    1.00000
   1                     0
   2                     0
   3                     0
   4                     0
   5                     0
   6      0.69535144542343
   7                     0
   8                     0
   9      0.53216542138496
  10                     0
  11                     0
  12                     0
  13                     0
  14                     0
  15     -0.07639628860189
  16                     0
  17                     0
  18     -0.10521545639757
  19                     0
  20                     0
  21                     0
  22                     0
  23                     0
  24      -0.1220942817576
  25                     0
  26                     0
  27    -0.087762736631681
  28                     0
  29                     0
  30                     0
  31                     0
  32                     0
  33     0.022829168637388
  34                     0
  35                     0
  36    -0.014490472413747
  37                     0
  38                     0
  39                     0
  40                     0
  41                     0
  42                     0
  43                     0
  44                     0
  45                     0
  46    0.0053168522909211
  47                     0
  48                     0
  49    0.00084989758442596
  50                     0
  51                     0
  52                     0
  53                     0
  54                     0
  55    0.0045361431642969
  56                     0
  57                     0
  58    0.0048097902995367
  59                     0
  60                     0
  61                     0
  62                     0
  63                     0
  64                     0
  65                     0
  66                     0
  67                     0
  68    0.0078853826186746
  69                     0
  70                     0
  71    -0.0039926427565951
  72                     0
  73                     0
  74                     0
  75                     0
  76                     0
  77    -0.0044229251259495
  78                     0
  79                     0
  80     0.003571862579509
  81                     0
  82                     0
  83                     0
  84                     0
  85                     0
  86                     0
  87                     0
  88                     0
  89                     0
  90                     0
  91                     0
  92                     0
 Sym= A
 Ene=               1
 Spin= Alpha
 Occup=    1.00000
   1                     0
   2                     0
   3                     0
   4                     0
   5                     0
   6     0.022018818796137
   7                     0
   8                     0
   9    -0.013244331499066
  10                     0
  11                     0
  12                     0
  13                     0
  14                     0
  15    0.0042791238444921
  16                     0
  17                     0
  18    0.0054409852617242
  19                     0
  20                     0
  21                     0
  22                     0
  23                     0
  24    -0.076166763848807
  25                     0
  26                     0
  27     -0.10641193928058
  28                     0
  29                     0
  30                     0
  31                     0
  32                     0
  33    -0.0032101297513815
  34                     0
  35                     0
  36    0.0019747051864166
  37                     0
  38                     0
  39                     0
  40                     0
  41                     0
  42                     0
  43                     0
  44                     0
  45                     0
  46      0.69327168540269
  47                     0
  48                     0
  49      0.53017747391999
  50                     0
  51                     0
  52                     0
  53                     0
  54                     0
  55    -0.00095816751583383
  56                     0
  57                     0
  58    0.00076771750249166
  59                     0
  60                     0
  61                     0
  62                     0
  63                     0
  64                     0
  65                     0
  66                     0
  67                     0
  68      -0.1304908962025
  69                     0
  70                     0
  71    -0.074359716768246
  72                     0
  73                     0
  74                     0
  75                     0
  76                     0
  77    0.0011454486673585
  78                     0
  79                     0
  80    -0.0016865169207212
  81                     0
  82                     0
  83                     0
  84                     0
  85                     0
  86                     0
  87                     0
  88                     0
  89                     0
  90                     0
  91                     0
  92                     0
 Sym= A
 Ene=               2
 Spin= Alpha
 Occup=    1.00000
   1                     0
   2                     0
   3                     0
   4                     0
   5                     0
   6    -0.0061626754093211
   7                     0
   8                     0
   9    0.0014487629874954
  10                     0
  11                     0
  12                     0
  13                     0
  14                     0
  15    -0.00032977924030578
  16                     0
  17                     0
  18    0.0019388671590144
  19                     0
  20                     0
  21                     0
  22                     0
  23                     0
  24    -0.0059218427882814
  25                     0
  26                     0
  27    -0.0013542499083637
  28                     0
  29                     0
  30                     0
  31                     0
  32                     0
  33    0.0021269152804018
  34                     0
  35                     0
  36    -0.0033897897479558
  37                     0
  38                     0
  39                     0
  40                     0
  41                     0
  42                     0
  43                     0
  44                     0
  45                     0
  46      0.11374261127627
  47                     0
  48                     0
  49     0.093426430819241
  50                     0
  51                     0
  52                     0
  53                     0
  54                     0
  55    0.00058843781274823
  56                     0
  57                     0
  58    -0.00039275347781725
  59                     0
  60                     0
  61                     0
  62                     0
  63                     0
  64                     0
  65                     0
  66                     0
  67                     0
  68     -0.67646787960637
  69                     0
  70                     0
  71     -0.50268936919111
  72                     0
  73                     0
  74                     0
  75                     0
  76                     0
  77    -0.0011833942976833
  78                     0
  79                     0
  80    0.0016846078775936
  81                     0
  82                     0
  83                     0
  84                     0
  85                     0
  86                     0
  87                     0
  88                     0
  89                     0
  90                     0
  91                     0
  92                     0
 Sym= A
 Ene=               3
 Spin= Alpha
 Occup=    1.00000
   1                     0
   2                     0
   3                     0
   4                     0
   5                     0
   6        0.120221651163
   7                     0
   8                     0
   9     0.089104388182088
  10                     0
  11                     0
  12                     0
  13                     0
  14                     0
  15    -0.0063934304680587
  16                     0
  17                     0
  18    0.0011044428606395
  19                     0
  20                     0
  21                     0
  22                     0
  23                     0
  24      -0.6969935275763
  25                     0
  26                     0
  27     -0.53063525602052
  28                     0
  29                     0
  30                     0
  31                     0
  32                     0
  33    -0.0067977806048418
  34                     0
  35                     0
  36    0.0013279563020742
  37                     0
  38                     0
  39                     0
  40                     0
  41                     0
  42                     0
  43                     0
  44                     0
  45                     0
  46     0.074985155739226
  47                     0
  48                     0
  49      0.10501065287458
  50                     0
  51                     0
  52                     0
  53                     0
  54                     0
  55    -0.00065850785395907
  56                     0
  57                     0
  58    0.0025486755220832
  59                     0
  60                     0
  61                     0
  62                     0
  63                     0
  64                     0
  65                     0
  66                     0
  67                     0
  68    -0.029076755640644
  69                     0
  70                     0
  71     0.016822259099672
  72                     0
  73                     0
  74                     0
  75                     0
  76                     0
  77    0.0027724451667079
  78                     0
  79                     0
  80    -0.0041630450958364
  81                     0
  82                     0
  83                     0
  84                     0
  85                     0
  86                     0
  87                     0
  88                     0
  89                     0
  90                     0
  91                     0
  92                     0
 Sym= A
 Ene=               4
 Spin= Alpha
 Occup=    1.00000
   1                     0
   2                     0
   3                     0
   4                     0
   5                     0
   6    -0.0063934330611182
   7                     0
   8                     0
   9    0.0011044290074186
  10                     0
  11                     0
  12                     0
  13                     0
  14                     0
  15      0.12022180177613
  16                     0
  17                     0
  18     0.089104514259381
  19                     0
  20                     0
  21                     0
  22                     0
  23                     0
  24    -0.0067978321733612
  25                     0
  26                     0
  27    0.0013279081021539
  28                     0
  29                     0
  30                     0
  31                     0
  32                     0
  33     -0.69699352860747
  34                     0
  35                     0
  36     -0.53063523794526
  37                     0
  38                     0
  39                     0
  40                     0
  41                     0
  42                     0
  43                     0
  44                     0
  45                     0
  46    -0.00065850059706724
  47                     0
  48                     0
  49    0.0025486846257702
  50                     0
  51                     0
  52                     0
  53                     0
  54                     0
  55     0.074984907502519
  56                     0
  57                     0
  58      0.10501046254557
  59                     0
  60                     0
  61                     0
  62                     0
  63                     0
  64                     0
  65                     0
  66                     0
  67                     0
  68     0.002772448547972
  69                     0
  70                     0
  71    -0.0041630370393478
  72                     0
  73                     0
  74                     0
  75                     0
  76                     0
  77    -0.029076704210957
  78                     0
  79                     0
  80     0.016822286460782
  81                     0
  82                     0
  83                     0
  84                     0
  85                     0
  86                     0
  87                     0
  88                     0
  89                     0
  90                     0
  91                     0
  92                     0
 Sym= A
 Ene=               5
 Spin= Alpha
 Occup=    1.00000
   1                     0
   2                     0
   3                     0
   4                     0
   5                     0
   6    0.00032978161372092
   7                     0
   8                     0
   9    -0.0019388677892094
  10                     0
  11                     0
  12                     0
  13                     0
  14                     0
  15    0.0061626976522769
  16                     0
  17                     0
  18    -0.0014487393084689
  19                     0
  20                     0
  21                     0
  22                     0
  23                     0
  24    -0.0021269218456163
  25                     0
  26                     0
  27    0.0033897824997748
  28                     0
  29                     0
  30                     0
  31                     0
  32                     0
  33    0.0059218580851294
  34                     0
  35                     0
  36    0.0013542727831716
  37                     0
  38                     0
  39                     0
  40                     0
  41                     0
  42                     0
  43                     0
  44                     0
  45                     0
  46    -0.00058843808178971
  47                     0
  48                     0
  49    0.00039275342951552
  50                     0
  51                     0
  52                     0
  53                     0
  54                     0
  55     -0.11374277120881
  56                     0
  57                     0
  58    -0.093426553394017
  59                     0
  60                     0
  61                     0
  62                     0
  63                     0
  64                     0
  65                     0
  66                     0
  67                     0
  68     0.001183396763351
  69                     0
  70                     0
  71    -0.0016846048496824
  72                     0
  73                     0
  74                     0
  75                     0
  76                     0
  77      0.67646791013441
  78                     0
  79                     0
  80      0.50268938609132
  81                     0
  82                     0
  83                     0
  84                     0
  85                     0
  86                     0
  87                     0
  88                     0
  89                     0
  90                     0
  91                     0
  92                     0
 Sym= A
 Ene=               6
 Spin= Alpha
 Occup=    1.00000
   1                     0
   2                     0
   3                     0
   4                     0
   5                     0
   6    -0.0042791356598422
   7                     0
   8                     0
   9    -0.0054410007503638
  10                     0
  11                     0
  12                     0
  13                     0
  14                     0
  15    -0.022018798513865
  16                     0
  17                     0
  18     0.013244349994519
  19                     0
  20                     0
  21                     0
  22                     0
  23                     0
  24    0.0032101357672028
  25                     0
  26                     0
  27    -0.0019747078760769
  28                     0
  29                     0
  30                     0
  31                     0
  32                     0
  33     0.076167001308243
  34                     0
  35                     0
  36       0.1064121216691
  37                     0
  38                     0
  39                     0
  40                     0
  41                     0
  42                     0
  43                     0
  44                     0
  45                     0
  46    0.00095817923428898
  47                     0
  48                     0
  49    -0.00076770974883733
  50                     0
  51                     0
  52                     0
  53                     0
  54                     0
  55     -0.69327168567604
  56                     0
  57                     0
  58     -0.53017749005257
  59                     0
  60                     0
  61                     0
  62                     0
  63                     0
  64                     0
  65                     0
  66                     0
  67                     0
  68    -0.0011454515062709
  69                     0
  70                     0
  71    0.0016865186861769
  72                     0
  73                     0
  74                     0
  75                     0
  76                     0
  77      0.13049075141764
  78                     0
  79                     0
  80     0.074359594359485
  81                     0
  82                     0
  83                     0
  84                     0
  85                     0
  86                     0
  87                     0
  88                     0
  89                     0
  90                     0
  91                     0
  92                     0
 Sym= A
 Ene=               7
 Spin= Alpha
 Occup=    1.00000
   1                     0
   2                     0
   3                     0
   4                     0
   5                     0
   6     0.076396695574487
   7                     0
   8                     0
   9      0.10521576933539
  10                     0
  11                     0
  12                     0
  13                     0
  14                     0
  15     -0.69535146463925
  16                     0
  17                     0
  18     -0.53216546188258
  19                     0
  20                     0
  21                     0
  22                     0
  23                     0
  24    -0.022829234655311
  25                     0
  26                     0
  27     0.014490427032123
  28                     0
  29                     0
  30                     0
  31                     0
  32                     0
  33      0.12209414248086
  34                     0
  35                     0
  36     0.087762615978921
  37                     0
  38                     0
  39                     0
  40                     0
  41                     0
  42                     0
  43                     0
  44                     0
  45                     0
  46    -0.0045361471658115
  47                     0
  48                     0
  49    -0.0048097950646094
  50                     0
  51                     0
  52                     0
  53                     0
  54                     0
  55    -0.0053169008402002
  56                     0
  57                     0
  58    -0.00084992328559036
  59                     0
  60                     0
  61                     0
  62                     0
  63                     0
  64                     0
  65                     0
  66                     0
  67                     0
  68    0.0044229269560705
  69                     0
  70                     0
  71    -0.0035718689323165
  72                     0
  73                     0
  74                     0
  75                     0
  76                     0
  77    -0.0078853522969555
  78                     0
  79                     0
  80    0.0039926761863626
  81                     0
  82                     0
  83                     0
  84                     0
  85                     0
  86                     0
  87                     0
  88                     0
  89                     0
  90                     0
  91                     0
  92                     0
