 &FCI NORB=  29,NELEC=32,MS2=0,
  ORBSYM=1,1,1,1,1,1,1,1,1,1,1,1,1,1,1,1,1,1,1,1,1,1,1,1,1,1,1,1,1,
  ISYM=1,
 &END
 0.2471604381157579    1    1    1    1
 0.2639277859890886    1    1    2    2
 0.184271410155259    1    1    3    3
 -0.03323685277897191    1    1    4    1
 0.2014480866275783    1    1    4    4
 0.1717097688676123    1    1    5    5
 0.2741940148395943    1    1    6    6
 0.005366342093519533    1    1    7    3
 0.1811717079961975    1    1    7    7
 -0.01695238191798861    1    1    8    2
 0.1610256713882053    1    1    8    8
 -0.01526954291417046    1    1    9    1
 0.008064876627040049    1    1    9    4
 0.1546533097552423    1    1    9    9
 0.01800973465791052    1    1   10    2
 -0.006182211663339427    1    1   10    8
 0.1557530755212925    1    1   10   10
 -0.009991886064576364    1    1   11    3
 -0.0003992409587647251    1    1   11    7
 0.1237028593654823    1    1   11   11
 -0.003767581634210869    1    1   12    1
 -0.008982342166587099    1    1   12    4
 -0.0007424885049636765    1    1   12    9
 0.1228834730824796    1    1   12   12
 -0.0280820557508893    1    1   13    1
 0.004203678004341865    1    1   13    4
 0.01041870056112556    1    1   13    9
 0.004444125073401394    1    1   13   12
 0.1765019153033691    1    1   13   13
 -0.01716516304896596    1    1   14    5
 0.1686812516745543    1    1   14   14
 0.2274580862083722    1    1   15   15
 -0.003501042582088271    1    1   16    2
 -0.0005365899871955957    1    1   16    8
 0.002592405985051624    1    1   16   10
 0.2274665780994171    1    1   16   16
 0.00342519907954189    1    1   17    3
 -4.71508247609536e-05    1    1   17    7
 -0.004204839645407755    1    1   17   11
 0.2229916840931928    1    1   17   17
 -0.01094528657781469    1    1   18    6
 0.229178233999588    1    1   18   18
 -0.02404983153084002    1    1   19    2
 0.009826124345019536    1    1   19    8
 -0.009042577952798598    1    1   19   10
 0.003626746953631717    1    1   19   16
 0.1666868064271079    1    1   19   19
 -0.005485153714468064    1    1   20    3
 0.02141421688430329    1    1   20    7
 0.007300389042824779    1    1   20   11
 0.001355312659652928    1    1   20   17
 0.1820844208004047    1    1   20   20
 0.01178430272411708    1    1   21    5
 -0.008663347821813216    1    1   21   14
 0.1510893312996396    1    1   21   21
 -0.02195252717913999    1    1   22    1
 0.005387547131829295    1    1   22    4
 0.01984611468370859    1    1   22    9
 0.004641010690571011    1    1   22   12
 0.02588161439588818    1    1   22   13
 0.2056484192734935    1    1   22   22
 -0.01506141809884474    1    1   23    1
 0.02358635844557687    1    1   23    4
 0.01483449209791218    1    1   23    9
 -0.01418983180230976    1    1   23   12
 0.01382640172640722    1    1   23   13
 0.02828759673872572    1    1   23   22
 0.1888928718879004    1    1   23   23
 -0.0010887170811891    1    1   24    3
 -0.01686811235410775    1    1   24    7
 -0.001307511068328038    1    1   24   11
 0.0005891734295308363    1    1   24   17
 -0.01541585231088374    1    1   24   20
 0.1560479707578317    1    1   24   24
 0.002849793258419541    1    1   25    2
 -0.01104346320312833    1    1   25    8
 -0.0008654594162303107    1    1   25   10
 -0.0005624276271716731    1    1   25   16
 0.01063261405224704    1    1   25   19
 0.1252022047318652    1    1   25   25
 -0.001062582346371143    1    1   26    5
 -0.0190939953486526    1    1   26   14
 0.008920604209730811    1    1   26   21
 0.1287338839268118    1    1   26   26
 -0.01589083266523104    1    1   27    5
 0.01703716077687338    1    1   27   14
 -0.007749937531802614    1    1   27   21
 -0.002150992618321997    1    1   27   26
 0.1759275180249704    1    1   27   27
 -0.03229640501265745    1    1   28    2
 0.0184632653050293    1    1   28    8
 -0.02641343096128025    1    1   28   10
 0.004216087592262897    1    1   28   16
 0.02265060119646589    1    1   28   19
 -0.0001455373971365305    1    1   28   25
 0.2289767644025545    1    1   28   28
 -0.01537500535189086    1    1   29    3
 -0.005417834115290846    1    1   29    7
 0.01477467689662512    1    1   29   11
 0.004413974356812899    1    1   29   17
 0.0004655824290345535    1    1   29   20
 0.001707568283883478    1    1   29   24
 0.1684850454133518    1    1   29   29
 0.140368600199926    2    1    2    1
 -0.0706174761961165    2    1    4    2
 0.009576715048747931    2    1    5    3
 -0.06805243239494296    2    1    7    5
 -0.007158697206414709    2    1    8    1
 0.02127662131545273    2    1    8    4
 -0.01272578922171149    2    1    9    2
 0.005679177817898791    2    1    9    8
 0.01235247984419121    2    1   10    1
 -0.005215890012854201    2    1   10    4
 -0.07393891643483905    2    1   10    9
 -0.0005199663562423008    2    1   11    5
 0.0003247001643619615    2    1   12    2
 0.001984097620085338    2    1   12    8
 0.0007956361346667198    2    1   12   10
 -0.02370583666760527    2    1   13    2
 0.04557693775978362    2    1   13    8
 -0.01099038363263636    2    1   13   10
 0.01235011573001497    2    1   14    3
 0.04698627302420189    2    1   14    7
 0.007895379398568506    2    1   14   11
 -0.01004759545365407    2    1   16    1
 0.007077849462810441    2    1   16    4
 0.002752158783642109    2    1   16    9
 -0.0003348670536632306    2    1   16   12
 -0.0004584244141666554    2    1   16   13
 0.001214586075088186    2    1   17    5
 -0.003032924435055565    2    1   17   14
 -0.02246479905012388    2    1   19    1
 0.007858238174799342    2    1   19    4
 0.002693180400377248    2    1   19    9
 -0.005552857651170953    2    1   19   12
 0.04472108204743974    2    1   19   13
 -0.01751524180752048    2    1   20    5
 0.05119782330372752    2    1   20   14
 0.001309171376406949    2    1   21    3
 -0.01013848559038576    2    1   21    7
 -0.002340959179206524    2    1   21   11
 0.000321382895460222    2    1   21   17
 0.001353849251798527    2    1   21   20
 -0.01703705229348769    2    1   22    2
 0.009629256964214402    2    1   22    8
 -0.01696051722597538    2    1   22   10
 -0.002238934376994095    2    1   22   16
 0.007570333749710164    2    1   22   19
 -0.01912973176502776    2    1   23    2
 0.01163452070080942    2    1   23    8
 -0.0120648818580975    2    1   23   10
 -0.001117037247138684    2    1   23   16
 0.03660955719245983    2    1   23   19
 0.01076498214139225    2    1   24    5
 -0.00465816051488223    2    1   24   14
 0.0695867819666033    2    1   24   21
 0.0005901178691492977    2    1   25    1
 -0.006738076873702673    2    1   25    4
 -0.0001743925942784242    2    1   25    9
 0.005020079456455014    2    1   25   12
 -0.001040597612768064    2    1   25   13
 -0.002207977886226726    2    1   25   22
 0.007715831788644651    2    1   25   23
 -0.006503500507738231    2    1   26    3
 -0.008962907441183899    2    1   26    7
 0.003851337160470316    2    1   26   11
 0.001368751846122827    2    1   26   17
 -0.01361262285020947    2    1   26   20
 0.0155013476787619    2    1   26   24
 0.0003098200180954589    2    1   27    3
 0.0161302939562787    2    1   27    7
 0.001286291256949949    2    1   27   11
 -0.00123294738707191    2    1   27   17
 0.06393134225806256    2    1   27   20
 -0.02389844274630895    2    1   27   24
 -0.02518673411839221    2    1   28    1
 0.01181361741243503    2    1   28    4
 0.01914896895165472    2    1   28    9
 -0.00255277102814146    2    1   28   12
 0.03467118695514839    2    1   28   13
 0.1077186644743615    2    1   28   22
 0.06706448174995824    2    1   28   23
 -0.0008794597075637524    2    1   29    5
 0.006481670726862939    2    1   29   14
 -0.0025908349776507    2    1   29   21
 -0.006147780216745078    2    1   29   26
 -0.02307254340299639    2    1   29   27
 0.2639277859890886    2    2    1    1
 0.2900570965032915    2    2    2    2
 0.1614845427585945    2    2    3    3
 -0.05256234907879535    2    2    4    1
 0.1882862380886033    2    2    4    4
 0.1729544832353033    2    2    5    5
 0.2945608020336985    2    2    6    6
 0.003284038386326342    2    2    7    3
 0.1878610113136053    2    2    7    7
 -0.02075852037468538    2    2    8    2
 0.1548091838794941    2    2    8    8
 -0.01754264336869597    2    2    9    1
 0.008787608053974228    2    2    9    4
 0.1653845562788544    2    2    9    9
 0.02057100569544914    2    2   10    2
 -0.007991181713913355    2    2   10    8
 0.1665824380189112    2    2   10   10
 -0.007599084547955137    2    2   11    3
 0.001167593095520188    2    2   11    7
 0.1142852512291128    2    2   11   11
 -0.002704762660734454    2    2   12    1
 -0.00710082765390759    2    2   12    4
 -0.0007561972036559333    2    2   12    9
 0.1135535020019474    2    2   12   12
 -0.03136092425008381    2    2   13    1
 0.01126435826215747    2    2   13    4
 0.01242786471751065    2    2   13    9
 0.00271043754178131    2    2   13   12
 0.1765277951388365    2    2   13   13
 -0.02778176874772707    2    2   14    5
 0.1681408434979423    2    2   14   14
 0.2271334211365819    2    2   15   15
 -0.005898302097547999    2    2   16    2
 -0.0006046314397302316    2    2   16    8
 0.002041765432116132    2    2   16   10
 0.2284347359303631    2    2   16   16
 0.005276977854193043    2    2   17    3
 -0.000283434403601025    2    2   17    7
 -0.004616942449043952    2    2   17   11
 0.2210351802681162    2    2   17   17
 -0.01598590519102398    2    2   18    6
 0.2290691567044934    2    2   18   18
 -0.02970109858489991    2    2   19    2
 0.01835497333209162    2    2   19    8
 -0.009435081385105378    2    2   19   10
 0.00427716314728239    2    2   19   16
 0.1623554912611023    2    2   19   19
 -0.0009900240620780414    2    2   20    3
 0.03129114440312732    2    2   20    7
 0.007207922844771505    2    2   20   11
 0.0007589506397969398    2    2   20   17
 0.1878029274779893    2    2   20   20
 0.01348543601117795    2    2   21    5
 -0.006925194524237788    2    2   21   14
 0.1598547447450374    2    2   21   21
 -0.02452600099980532    2    2   22    1
 0.00793137120012221    2    2   22    4
 0.02296987152105106    2    2   22    9
 0.002715066752863986    2    2   22   12
 0.02978032119625861    2    2   22   13
 0.214758425519554    2    2   22   22
 -0.02078197559254118    2    2   23    1
 0.02142047399594255    2    2   23    4
 0.01631113264102253    2    2   23    9
 -0.01179165856401433    2    2   23   12
 0.0248919063299177    2    2   23   13
 0.04412956997062303    2    2   23   22
 0.1822143048929755    2    2   23   23
 -0.0004115739460250549    2    2   24    3
 -0.01881912073407343    2    2   24    7
 -0.001531866610596824    2    2   24   11
 0.0006022213615724198    2    2   24   17
 -0.01720284541339794    2    2   24   20
 0.1665814817403952    2    2   24   24
 0.00359840454694424    2    2   25    2
 -0.009135490107820467    2    2   25    8
 -0.0006465850510280877    2    2   25   10
 -0.0005568362003096709    2    2   25   16
 0.009107398485925833    2    2   25   19
 0.1159456107054311    2    2   25   25
 0.002031535605316747    2    2   26    5
 -0.01924836580730396    2    2   26   14
 0.01187151484221815    2    2   26   21
 0.1204453986207941    2    2   26   26
 -0.01796381929391437    2    2   27    5
 0.02691013404626525    2    2   27   14
 -0.0112966832920326    2    2   27   21
 -0.00597922357728905    2    2   27   26
 0.1772216232375943    2    2   27   27
 -0.0377171184312266    2    2   28    2
 0.02256683715883206    2    2   28    8
 -0.03044634506317155    2    2   28   10
 0.004145684131684465    2    2   28   16
 0.03002263981042383    2    2   28   19
 0.0004929064833853991    2    2   28   25
 0.2486761954137373    2    2   28   28
 -0.01043809463219602    2    2   29    3
 -0.002389372554521294    2    2   29    7
 0.0112168566807693    2    2   29   11
 0.004451486016419757    2    2   29   17
 -0.004807705612540476    2    2   29   20
 0.002076537670500359    2    2   29   24
 0.1509826562857525    2    2   29   29
 0.03150002962658147    3    1    3    1
 0.06766662974328005    3    1    4    3
 0.005951146922690166    3    1    5    2
 -0.004492081505437858    3    1    7    1
 0.007654674271456827    3    1    7    4
 0.02976585060032484    3    1    8    5
 0.0008708300291333287    3    1    9    3
 -0.000546835228088799    3    1    9    7
 0.0001949526961629884    3    1   10    5
 -0.002792280816367322    3    1   11    1
 -0.00581270468562901    3    1   11    4
 -0.0003597341277971046    3    1   11    9
 -0.006197659300941142    3    1   12    3
 -0.002304023908607054    3    1   12    7
 0.03550910333190337    3    1   12   11
 -0.01178454052468892    3    1   13    3
 -0.02147303656933646    3    1   13    7
 0.005195896964392982    3    1   13   11
 -0.004515712511620452    3    1   14    2
 0.02620179150332886    3    1   14    8
 0.003571899445761802    3    1   14   10
 0.0004790565541642664    3    1   16    5
 0.001563249951316873    3    1   16   14
 -0.001602217458264787    3    1   17    1
 -0.005509741445603402    3    1   17    4
 -0.0002330163957400365    3    1   17    9
 0.001310211188763134    3    1   17   12
 -0.0002396934607646744    3    1   17   13
 -0.005001788802720271    3    1   19    5
 -0.02590765274152997    3    1   19   14
 -0.005190927478839438    3    1   20    1
 -0.008299762697391806    3    1   20    4
 -0.002459258993313337    3    1   20    9
 0.0008600843351741494    3    1   20   12
 0.02054530105247667    3    1   20   13
 0.002882488670599113    3    1   21    2
 -0.002536737489505819    3    1   21    8
 0.00190425987568051    3    1   21   10
 -0.0005517241473166071    3    1   21   16
 0.008541480260873461    3    1   21   19
 -0.003135881124467135    3    1   22    3
 -0.0005762753710371648    3    1   22    7
 0.004663490571388449    3    1   22   11
 -0.0006792730065237932    3    1   22   17
 -0.006235791952314009    3    1   22   20
 0.01205011185711073    3    1   23    3
 0.006766298575954107    3    1   23    7
 -0.008987864568772775    3    1   23   11
 0.0008986459695045385    3    1   23   17
 -0.01480775992468986    3    1   23   20
 0.001530972482484553    3    1   24    1
 -0.002674066030947003    3    1   24    4
 -0.002256754470160605    3    1   24    9
 0.0001239264070507635    3    1   24   12
 0.0007580399819945476    3    1   24   13
 0.002474140489606547    3    1   24   22
 0.002078394285808231    3    1   24   23
 -0.00500294423568583    3    1   25    5
 -0.003094279976449722    3    1   25   14
 -0.004395721891404138    3    1   25   21
 0.0002713016654101457    3    1   26    2
 -0.007344633693347048    3    1   26    8
 -0.0005162361509863161    3    1   26   10
 -0.0004679764121480015    3    1   26   16
 0.00549142280394144    3    1   26   19
 0.03521252752372264    3    1   26   25
 -1.5553634458304e-05    3    1   27    2
 -0.00550432236389875    3    1   27    8
 -0.0007452802150601361    3    1   27   10
 -0.0004930965636088019    3    1   27   16
 0.02820015544976935    3    1   27   19
 0.007652632387649426    3    1   27   25
 -0.0004899268439184905    3    1   28    5
 -0.001535697291983579    3    1   28   14
 0.000604719089959782    3    1   28   21
 0.0002373337687735416    3    1   28   26
 -0.01255966013750382    3    1   28   27
 -0.006118790439501011    3    1   29    1
 -0.01179760034185105    3    1   29    4
 -0.001388875324391722    3    1   29    9
 0.009368418412108734    3    1   29   12
 0.01635362479726287    3    1   29   13
 0.03069962538742581    3    1   29   22
 -0.05231835156512803    3    1   29   23
 0.0001063444554432319    3    2    3    2
 8.850650331003942e-05    3    2    5    1
 0.0002237990107417917    3    2    5    4
 0.0001030538710028171    3    2    7    2
 0.0001889662121371905    3    2    8    3
 -0.0006992866722511084    3    2    8    7
 -0.000202700367112328    3    2    9    5
 -5.027564401343957e-06    3    2   10    3
 -0.0002311765635722099    3    2   10    7
 1.399190608950628e-05    3    2   11    2
 -8.629983438342557e-05    3    2   11    8
 -2.535541389553233e-05    3    2   11   10
 -8.509717372774478e-05    3    2   12    5
 0.0008418149227270374    3    2   13    5
 0.000263593361719407    3    2   14    1
 -0.0001387053829019575    3    2   14    4
 0.0002254044573472718    3    2   14    9
 -0.0001208652685481075    3    2   14   12
 0.0001590779795020111    3    2   14   13
 9.195667905665964e-05    3    2   15    6
 3.565929307471922e-05    3    2   16    3
 -2.842868286005341e-05    3    2   16    7
 -2.372773178475551e-05    3    2   16   11
 2.372402358317997e-05    3    2   17    2
 -1.469526317161344e-05    3    2   17    8
 2.56403447402815e-05    3    2   17   10
 0.0002415605520884206    3    2   17   16
 1.185098419717535e-06    3    2   18   15
 0.0001885639862303675    3    2   19    3
 -0.0006306715925830678    3    2   19    7
 0.000126497122580494    3    2   19   11
 -1.153861782246916e-05    3    2   19   17
 0.0005228510622088394    3    2   20    2
 0.0008013709214038328    3    2   20    8
 -0.0002417658008695007    3    2   20   10
 -4.449674376925444e-05    3    2   20   16
 0.0007175392309828108    3    2   20   19
 3.270536629906259e-05    3    2   21    1
 6.684924777810246e-05    3    2   21    4
 0.0002868344278595891    3    2   21    9
 4.291867139201638e-05    3    2   21   12
 0.0001478736464563664    3    2   21   13
 -0.0008387492597065478    3    2   22    5
 0.0002386849229422412    3    2   22   14
 -0.0002626947899879795    3    2   22   21
 -4.830099978657512e-05    3    2   23    5
 0.000211835126523362    3    2   23   14
 -9.068369665685166e-05    3    2   23   21
 -9.617786756111816e-05    3    2   24    2
 -2.727386387261655e-05    3    2   24    8
 -0.0002685981235835435    3    2   24   10
 3.735401802641183e-05    3    2   24   16
 -7.156536440652503e-05    3    2   24   19
 -6.504128978903492e-05    3    2   25    3
 3.021692404648685e-05    3    2   25    7
 -0.0001360076943662855    3    2   25   11
 -8.253016815218033e-06    3    2   25   17
 2.584927112751507e-05    3    2   25   20
 -1.649390561899735e-05    3    2   25   24
 -0.0001197446524084595    3    2   26    1
 -2.457086107885942e-05    3    2   26    4
 1.918883956571417e-05    3    2   26    9
 -0.0001308642802774905    3    2   26   12
 -9.259526349279019e-05    3    2   26   13
 -4.630794228193523e-05    3    2   26   22
 -9.431602470195033e-05    3    2   26   23
 0.0005054133474793176    3    2   27    1
 -9.165216557724902e-06    3    2   27    4
 8.437482450321444e-05    3    2   27    9
 3.93778975660955e-05    3    2   27   12
 0.001047142884380154    3    2   27   13
 -0.0002039562736674311    3    2   27   22
 0.0002454573691919084    3    2   27   23
 -7.393237411290452e-05    3    2   28    3
 0.0007855649168617685    3    2   28    7
 3.509376666791768e-07    3    2   28   11
 -4.226795540751285e-06    3    2   28   17
 5.764166172872941e-05    3    2   28   20
 -0.0002549642683551262    3    2   28   24
 -0.0001194476540191706    3    2   29    2
 -0.0003606535771491957    3    2   29    8
 1.996205128555679e-05    3    2   29   10
 1.062448861906672e-05    3    2   29   16
 -0.0002363442207353141    3    2   29   19
 3.41949207598286e-05    3    2   29   25
 9.284162856290775e-05    3    2   29   28
 0.1842714101552588    3    3    1    1
 0.1614845427585944    3    3    2    2
 0.293127532841309    3    3    3    3
 0.04945418630982831    3    3    4    1
 0.269526605105232    3    3    4    4
 0.1661485450839655    3    3    5    5
 0.1914384722588043    3    3    6    6
 0.01698038356175713    3    3    7    3
 0.1532933975188867    3    3    7    7
 -0.002944037286180562    3    3    8    2
 0.1874465347240196    3    3    8    8
 -0.005724985927440753    3    3    9    1
 0.005529203945161012    3    3    9    4
 0.1132493365644619    3    3    9    9
 0.007514607484417662    3    3   10    2
 0.001282710402194984    3    3   10    8
 0.1139539926324766    3    3   10   10
 -0.02171231525788745    3    3   11    3
 -0.007361051983507274    3    3   11    7
 0.1678858127129804    3    3   11   11
 -0.008636496253740793    3    3   12    1
 -0.01837038759406021    3    3   12    4
 -0.0008040979018369756    3    3   12    9
 0.1666384866489074    3    3   12   12
 -0.01813367680161787    3    3   13    1
 -0.02835813312099469    3    3   13    4
 0.002303970627445044    3    3   13    9
 0.0125543618993413    3    3   13   12
 0.1750338656911439    3    3   13   13
 0.02733441313116915    3    3   14    5
 0.1759741877323559    3    3   14   14
 0.2272011636654651    3    3   15   15
 0.005352117210641368    3    3   16    2
 8.050597350373853e-05    3    3   16    8
 0.004567211188908887    3    3   16   10
 0.221109739739065    3    3   16   16
 -0.006053246826173603    3    3   17    3
 0.0005787465267392838    3    3   17    7
 -0.001996408945258312    3    3   17   11
 0.2285533382171898    3    3   17   17
 0.009000368735649317    3    3   18    6
 0.2292464575034796    3    3   18   18
 -0.002422048010872802    3    3   19    2
 -0.0308678779677544    3    3   19    8
 -0.007670101943346351    3    3   19   10
 0.0009153488012330288    3    3   19   16
 0.1863512300674058    3    3   19   19
 -0.02781856880351668    3    3   20    3
 -0.01552331481426357    3    3   20    7
 0.00816741928226708    3    3   20   11
 0.004006353377045776    3    3   20   17
 0.1593282801558412    3    3   20   20
 0.003683334421471647    3    3   21    5
 -0.01648016299128057    3    3   21   14
 0.1174744040444507    3    3   21   21
 -0.01154080433994969    3    3   22    1
 -0.005942928243184613    3    3   22    4
 0.007500515734493866    3    3   22    9
 0.01360162788508936    3    3   22   12
 0.01505584813154489    3    3   22   13
 0.1722464534535018    3    3   22   22
 0.00961398956486895    3    3   23    1
 0.03720653964153892    3    3   23    4
 0.009385764063773611    3    3   23    9
 -0.02606842172004075    3    3   23   12
 -0.03498091981163432    3    3   23   13
 -0.03893883524476927    3    3   23   22
 0.2259652756616422    3    3   23   23
 -0.004244735388917465    3    3   24    3
 -0.009124281056000928    3    3   24    7
 -0.000307048354906749    3    3   24   11
 0.0005808408433062512    3    3   24   17
 -0.008325078115445842    3    3   24   20
 0.115291871891804    3    3   24   24
 -0.0001393478592379054    3    3   25    2
 -0.01957794129881052    3    3   25    8
 -0.001786417573630393    3    3   25   10
 -0.0006286742519756277    3    3   25   16
 0.0176085940341102    3    3   25   19
 0.1681522602152833    3    3   25   25
 -0.01395419147182    3    3   26    5
 -0.01912817734390362    3    3   26   14
 -0.003301832850202165    3    3   26   21
 0.1676526265655649    3    3   26   26
 -0.01304872596724423    3    3   27    5
 -0.02487173218417435    3    3   27   14
 0.006131744392416975    3    3   27   21
 0.01450423484172869    3    3   27   26
 0.1710140599345101    3    3   27   27
 -0.01038410507493145    3    3   28    2
 0.004304358542810725    3    3   28    8
 -0.01064687470622101    3    3   28   10
 0.004489297873689076    3    3   28   16
 -0.005831900351008348    3    3   28   19
 -0.002970133672226773    3    3   28   25
 0.1518579045596134    3    3   28   28
 -0.04063068251288944    3    3   29    3
 -0.02161034871569947    3    3   29    7
 0.03196550641804895    3    3   29   11
 0.004461036156244477    3    3   29   17
 0.02590489578853125    3    3   29   20
 0.0003522700793077634    3    3   29   24
 0.2511266344980694    3    3   29   29
 -0.03323685277897188    4    1    1    1
 -0.05256234907879543    4    1    2    2
 0.04945418630982831    4    1    3    3
 0.04014241206932143    4    1    4    1
 0.02954717073398554    4    1    4    4
 -0.002419339392486594    4    1    5    5
 -0.04208204677507384    4    1    6    6
 0.004868476679101323    4    1    7    3
 -0.01339497289962257    4    1    7    7
 0.007584970354395218    4    1    8    2
 0.01287705856499937    4    1    8    8
 0.004873341357731745    4    1    9    1
 -0.001481823976995047    4    1    9    4
 -0.02114358826244412    4    1    9    9
 -0.005447709914402045    4    1   10    2
 0.003718558696648137    4    1   10    8
 -0.02134565362493969    4    1   10   10
 -0.005202970677138719    4    1   11    3
 -0.003274333175712739    4    1   11    7
 0.02043072723329388    4    1   11   11
 -0.002251268592024715    4    1   12    1
 -0.004118698193400002    4    1   12    4
 3.972577189688672e-06    4    1   12    9
 0.02024028519029743    4    1   12   12
 0.006251924544450828    4    1   13    1
 -0.01520174730396976    4    1   13    4
 -0.004113409404071027    4    1   13    9
 0.003707829919303925    4    1   13   12
 -0.000335017346155314    4    1   13   13
 0.02162706674704979    4    1   14    5
 0.002405113389961023    4    1   14   14
 0.0002902183920389491    4    1   15   15
 0.004669832771004056    4    1   16    2
 0.0001982433100003666    4    1   16    8
 0.001063039140169331    4    1   16   10
 -0.002382496550871742    4    1   16   16
 -0.004196934880849199    4    1   17    3
 0.0003929783382833355    4    1   17    7
 0.0009676019483322404    4    1   17   11
 0.003261584782575554    4    1   17   17
 0.01022469794931147    4    1   18    6
 0.0001051619656907732    4    1   18   18
 0.01142072646903596    4    1   19    2
 -0.01854581473267699    4    1   19    8
 0.0008006081704696817    4    1   19   10
 -0.001340829751820021    4    1   19   16
 0.009283594573490914    4    1   19   19
 -0.009903954940813205    4    1   20    3
 -0.01914384927720223    4    1   20    7
 0.0002799558984444713    4    1   20   11
 0.001248745953909231    4    1   20   17
 -0.01120058398155425    4    1   20   20
 -0.003658702661122099    4    1   21    5
 -0.003712133243657627    4    1   21   14
 -0.01713928663739657    4    1   21   21
 0.005640247284845088    4    1   22    1
 -0.005558541857714803    4    1   22    4
 -0.006301178431338914    4    1   22    9
 0.004130427552721065    4    1   22   12
 -0.006945596739885744    4    1   22   13
 -0.01763208429117261    4    1   22   22
 0.01219176326699336    4    1   23    1
 0.00515784836114773    4    1   23    4
 -0.002926099733640888    4    1   23    9
 -0.005269459142381288    4    1   23   12
 -0.02321487856872052    4    1   23   13
 -0.03270691386917918    4    1   23   22
 0.01559818806701732    4    1   23   23
 -0.001459230873880687    4    1   24    3
 0.003844808886366878    4    1   24    7
 0.0004700796904295402    4    1   24   11
 -1.643761429456227e-05    4    1   24   17
 0.003519466688861537    4    1   24   20
 -0.02069295649775545    4    1   24   24
 -0.001500023721591511    4    1   25    2
 -0.003984436533391477    4    1   25    8
 -0.0004516462296438963    4    1   25   10
 -1.698792357270859e-05    4    1   25   16
 0.0032371018521011    4    1   25   19
 0.01999817814637444    4    1   25   25
 -0.006267102655374278    4    1   26    5
 0.0001671237014129051    4    1   26   14
 -0.006008784795134982    4    1   26   21
 0.01802715385814817    4    1   26   26
 0.002943872074712112    4    1   27    5
 -0.02024499012119267    4    1   27   14
 0.007033276535848643    4    1   27   21
 0.00793681165512361    4    1   27   26
 -0.002309686405189226    4    1   27   27
 0.01157533976752085    4    1   28    2
 -0.007857494942151296    4    1   28    8
 0.0081108344683369    4    1   28   10
 9.523389074914556e-05    4    1   28   16
 -0.01471900316015794    4    1   28   19
 -0.001321043912859934    4    1   28   25
 -0.03928042315142719    4    1   28   28
 -0.01100881150305553    4    1   29    3
 -0.006912995046637797    4    1   29    7
 0.00774028184025461    4    1   29   11
 -3.937841101399081e-05    4    1   29   17
 0.01145879268345612    4    1   29   20
 -0.0007149008253676641    4    1   29   24
 0.03788921538748476    4    1   29   29
 -0.07061747619611655    4    2    2    1
 0.03572896899390288    4    2    4    2
 -0.00433532407177347    4    2    5    3
 0.03227666296703947    4    2    7    5
 0.004380307301189569    4    2    8    1
 -0.01044894365195943    4    2    8    4
 0.006539398654415675    4    2    9    2
 -0.002934419212799708    4    2    9    8
 -0.006341724219702428    4    2   10    1
 0.002738049515898034    4    2   10    4
 0.03679575285099003    4    2   10    9
 0.0002269263564735139    4    2   11    5
 -0.0002269007575517472    4    2   12    2
 -0.001068033707301097    4    2   12    8
 -0.0004094829118756564    4    2   12   10
 0.01270179534422442    4    2   13    2
 -0.02109121460103011    4    2   13    8
 0.005537069154527194    4    2   13   10
 -0.005994214734419896    4    2   14    3
 -0.02328173701698667    4    2   14    7
 -0.003957250532747447    4    2   14   11
 0.005204381293683916    4    2   16    1
 -0.003571989825905417    4    2   16    4
 -0.001421511309645314    4    2   16    9
 0.0001518654238740522    4    2   16   12
 9.59069997754014e-05    4    2   16   13
 -0.0006085713532670323    4    2   17    5
 0.001486613410568551    4    2   17   14
 0.01194908513421366    4    2   19    1
 -0.004081576627045657    4    2   19    4
 -0.001435141379075757    4    2   19    9
 0.002787956824722898    4    2   19   12
 -0.02084975855343661    4    2   19   13
 0.009955992174349875    4    2   20    5
 -0.0252555577518871    4    2   20   14
 -0.0005727028670962976    4    2   21    3
 0.004668106192228307    4    2   21    7
 0.001179488499857817    4    2   21   11
 -0.000154146102112957    4    2   21   17
 -0.0004327097586404498    4    2   21   20
 0.008905794200569974    4    2   22    2
 -0.005779196330334478    4    2   22    8
 0.008645703896738634    4    2   22   10
 0.001025673262121241    4    2   22   16