[Molden Format]
made by pyscf v[2.0.1]
[Atoms] (AU)
Fe   1   26     0.00000000000000     0.00000000000000     0.00000000000000
N   2   7     3.73485471259039     0.00000000000000     0.00000000000000
N   3   7     0.00000000000000     3.75753142608517     0.00000000000000
N   4   7    -3.73485471259039     0.00000000000000     0.00000000000000
N   5   7     0.00000000000000    -3.75753142608517     0.00000000000000
C   6   6     5.32562616424926    -2.06036839361329     0.00000000000000
C   7   6     5.32562616424926     2.06036839361329     0.00000000000000
C   8   6     2.06320298280013     5.33828732928384     0.00000000000000
C   9   6    -2.06320298280013     5.33828732928384     0.00000000000000
C   10   6    -5.32562616424926     2.06036839361329     0.00000000000000
C   11   6    -5.32562616424926    -2.06036839361329     0.00000000000000
C   12   6    -2.06320298280013    -5.33828732928384     0.00000000000000
C   13   6     2.06320298280013    -5.33828732928384     0.00000000000000
C   14   6     7.92947979128746    -1.27991150416792     0.00000000000000
C   15   6     7.92947979128746     1.27991150416792     0.00000000000000
C   16   6     1.28973808001565     7.92022013327709     0.00000000000000
C   17   6    -1.28973808001565     7.92022013327709     0.00000000000000
C   18   6    -7.92947979128746     1.27991150416792     0.00000000000000
C   19   6    -7.92947979128746    -1.27991150416792     0.00000000000000
C   20   6    -1.28973808001565    -7.92022013327709     0.00000000000000
C   21   6     1.28973808001565    -7.92022013327709     0.00000000000000
H   22   1     9.53196754491863    -2.55831122743618     0.00000000000000
H   23   1     9.53196754491863     2.55831122743618     0.00000000000000
H   24   1     2.56209067968531     9.52724322960722     0.00000000000000
H   25   1    -2.56209067968531     9.52724322960722     0.00000000000000
H   26   1    -9.53196754491863     2.55831122743618     0.00000000000000
H   27   1    -9.53196754491863    -2.55831122743618     0.00000000000000
H   28   1    -2.56209067968531    -9.52724322960722     0.00000000000000
H   29   1     2.56209067968531    -9.52724322960722     0.00000000000000
C   30   6     4.56368859082462     4.55102742579004     0.00000000000000
C   31   6    -4.56368859082462     4.55102742579004     0.00000000000000
C   32   6    -4.56368859082462    -4.55102742579004     0.00000000000000
C   33   6     4.56368859082462    -4.55102742579004     0.00000000000000
H   34   1     6.01972256980200     6.00025839071898     0.00000000000000
H   35   1    -6.01972256980200     6.00025839071898     0.00000000000000
H   36   1    -6.01972256980200    -6.00025839071898     0.00000000000000
H   37   1     6.01972256980200    -6.00025839071898     0.00000000000000
[GTO]
1 0
 s   19 1.00
               4316265  8.0488023199039e-06
              646342.4  6.2583054711947e-05
              147089.7  0.00032902387219861
              41661.52  0.0013873548827733
              13590.77  0.0050232555755522
               4905.75   0.016101398639487
              1912.746   0.045900336121579
              792.6043    0.11361539039989
              344.8065    0.22838688070209
              155.8999    0.32211587278232
              72.23091    0.23836607985889
              32.72506   0.074046663743311
              15.66762   0.092141962214321
              7.503483   0.093397892108199
              3.312223   0.015739648670054
              1.558471  -0.00041866816462398
              0.683914  5.3763175457196e-05
              0.146757  -3.8166536775059e-05
              0.070583  4.3196026350084e-05
 s   19 1.00
               4316265  -4.1559369962002e-06
              646342.4  -3.2313877789452e-05
              147089.7  -0.00016995180465104
              41661.52  -0.00071713396588372
              13590.77  -0.0026036143474475
               4905.75  -0.0083990746356235
              1912.746  -0.024340990410105
              792.6043   -0.06251922420585
              344.8065   -0.13659234113955
              155.8999   -0.23126975377185
              72.23091   -0.23837242471164
              32.72506   0.031238242190359
              15.66762    0.50867971876342
              7.503483    0.49876745931891
              3.312223   0.090335150398436
              1.558471  -0.0060053124295769
              0.683914  0.00023124445387536
              0.146757  -0.00056436569092716
              0.070583  0.00049922395745117
 s   19 1.00
               4316265  9.5392794968425e-07
              646342.4  7.4201288995743e-06
              147089.7  3.9012973126954e-05
              41661.52  0.00016483791324274
              13590.77  0.00059904395703174
               4905.75  0.0019438370854879
              1912.746   0.005691474006023
              792.6043   0.015024474939216
              344.8065   0.034550270877518
              155.8999   0.065006594024135
              72.23091    0.07721942584146
              32.72506  -0.018748066959575
              15.66762   -0.30114268504749
              7.503483   -0.45580542340238
              3.312223    0.12874214182054
              1.558471    0.71886675886813
              0.683914    0.40547615588353
              0.146757    0.02169842334627
              0.070583  -0.0083497819778808
 s   19 1.00
               4316265  -2.7855316684837e-07
              646342.4  -2.1659942913938e-06
              147089.7  -1.1393815969693e-05
              41661.52  -4.8110671166032e-05
              13590.77  -0.00017498931033188
               4905.75  -0.00056730298734717
              1912.746  -0.0016634190856823
              792.6043  -0.0043867862458281
              344.8065  -0.010118228343349
              155.8999  -0.019039595468327
              72.23091  -0.022840460969647
              32.72506  0.0056966075590623
              15.66762   0.092272032737637
              7.503483    0.14828220074088
              3.312223  -0.054130717799492
              1.558471   -0.29363940203754
              0.683914   -0.33284949014195
              0.146757    0.36880606827045
              0.070583    0.77615453677882
 s   19 1.00
               4316265  -4.0457736469034e-07
              646342.4  -3.2182147037811e-06
              147089.7  -1.6378172028258e-05
              41661.52  -7.2229167603371e-05
              13590.77  -0.00024863317185672
               4905.75  -0.00086224981539081
              1912.746  -0.0023285468621802
              792.6043  -0.0067893875672321
              344.8065    -0.0137857032153
              155.8999  -0.030900463570667
              72.23091  -0.026550287703751
              32.72506  -0.0098488093433088
              15.66762    0.18182680231062
              7.503483    0.15435236850623
              3.312223   0.055554043395676
              1.558471   -0.96380941837406
              0.683914    0.26103022908272
              0.146757     1.8507028943296
              0.070583   -0.94179895310717
 s    1 1.00
              0.031449                   1
 p   15 1.00
              17745.69  4.0999986375771e-05
              4200.721  0.00036899987738194
              1364.429   0.002128999292537
              522.0806  0.0093689968866974
              221.4595   0.033096989001924
              100.9096   0.094430968620741
              48.40115    0.20807693085637
              23.98536    0.33233288956632
               12.1825    0.33298688934899
              6.242298    0.15684294788134
              3.110944   0.021548992839304
              1.509958  -0.0020949993038351
              0.710845  -0.0017389994221333
               0.27319  -0.00029999990031052
              0.104233  2.899999036335e-05
 p   15 1.00
              17745.69  -1.5001690667838e-05
              4200.721  -0.0001300146524546
              1364.429  -0.00075108464610309
              522.0806  -0.0033293752155489
              221.4595  -0.011913342615686
              100.9096  -0.034936937339972
              48.40115  -0.079998015655313
              23.98536   -0.13465117498367
               12.1825    -0.1386136215454
              6.242298   0.030281412669387
              3.110944    0.33325355717162
              1.509958    0.45620441354709
              0.710845    0.28508312843719
               0.27319   0.046149200945115
              0.104233  -0.0032493661986537
 p   15 1.00
              17745.69  4.2059051436175e-06
              4200.721  4.0657083054969e-05
              1364.429  0.00023132478289896
              522.0806  0.0010290447918051
              221.4595  0.0036815689690465
              100.9096   0.010830205744815
              48.40115   0.024861105303923
              23.98536   0.042136159697141
               12.1825   0.043592804845214
              6.242298  -0.014086978294356
              3.110944   -0.12380221987076
              1.509958   -0.18200914312166
              0.710845   -0.10786324134483
               0.27319    0.29814399791561
              0.104233    0.80341340250219
 p   15 1.00
              17745.69  5.2179925883807e-06
              4200.721  4.3831137742398e-05
              1364.429  0.00025150724275995
              522.0806  0.0011323043916786
              221.4595  0.0039980259212173
              100.9096   0.011921025867415
              48.40115   0.026916492967903
              23.98536   0.046771998365209
               12.1825   0.046542406691321
              6.242298  -0.011664300632066
              3.110944   -0.14415643764068
              1.509958   -0.19649394690065
              0.710845    -0.1120814371999
               0.27319    0.46425836736896
              0.104233    0.66815247135846
 p    1 1.00
              0.038291                   1
 d    7 1.00
               113.344  0.0035858865538461
               33.6414   0.026192209321351
                12.331    0.10068824060359
               4.99478     0.2428579762288
                2.0728    0.36285413346948
              0.830753    0.36792211874346
              0.309178    0.24020462334533
 d    7 1.00
               113.344  -0.0050113538596978
               33.6414   -0.03664085513561
                12.331   -0.14483843267146
               4.99478   -0.35331590629798
                2.0728   -0.40650711182833
              0.830753   0.073571570070304
              0.309178    0.72607174312111
 d    1 1.00
               0.10013                   1
 f    2 1.00
                3.2243    0.42224911271107
                0.7758    0.77146820592821

2 0
 s    8 1.00
                  9046  0.00069961741342552
                  1357  0.0053860546299287
                 309.3   0.027391021189057
                 87.73    0.10315059198201
                 28.56    0.27857066331743
                 10.21    0.44829484945412
                 3.838    0.27808592839527
                0.7466   0.015431561233271
 s    8 1.00
                  9046  -0.00030499009595337
                  1357  -0.0024080263785077
                 309.3   -0.01194444872518
                 87.73  -0.048925992909017
                 28.56   -0.13447272472496
                 10.21   -0.31511257770011
                 3.838   -0.24285783254964
                0.7466     1.0943822068542
 s    1 1.00
                0.2248                   1
 p    3 1.00
                 13.55   0.058905676772132
                 2.917    0.32046110671427
                0.7973    0.75304206179207
 p    1 1.00
                0.2185                   1
 d    1 1.00
                 0.817                   1

3 0
 s    8 1.00
                  9046  0.00069961741342552
                  1357  0.0053860546299287
                 309.3   0.027391021189057
                 87.73    0.10315059198201
                 28.56    0.27857066331743
                 10.21    0.44829484945412
                 3.838    0.27808592839527
                0.7466   0.015431561233271
 s    8 1.00
                  9046  -0.00030499009595337
                  1357  -0.0024080263785077
                 309.3   -0.01194444872518
                 87.73  -0.048925992909017
                 28.56   -0.13447272472496
                 10.21   -0.31511257770011
                 3.838   -0.24285783254964
                0.7466     1.0943822068542
 s    1 1.00
                0.2248                   1
 p    3 1.00
                 13.55   0.058905676772132
                 2.917    0.32046110671427
                0.7973    0.75304206179207
 p    1 1.00
                0.2185                   1
 d    1 1.00
                 0.817                   1

4 0
 s    8 1.00
                  9046  0.00069961741342552
                  1357  0.0053860546299287
                 309.3   0.027391021189057
                 87.73    0.10315059198201
                 28.56    0.27857066331743
                 10.21    0.44829484945412
                 3.838    0.27808592839527
                0.7466   0.015431561233271
 s    8 1.00
                  9046  -0.00030499009595337
                  1357  -0.0024080263785077
                 309.3   -0.01194444872518
                 87.73  -0.048925992909017
                 28.56   -0.13447272472496
                 10.21   -0.31511257770011
                 3.838   -0.24285783254964
                0.7466     1.0943822068542
 s    1 1.00
                0.2248                   1
 p    3 1.00
                 13.55   0.058905676772132
                 2.917    0.32046110671427
                0.7973    0.75304206179207
 p    1 1.00
                0.2185                   1
 d    1 1.00
                 0.817                   1

5 0
 s    8 1.00
                  9046  0.00069961741342552
                  1357  0.0053860546299287
                 309.3   0.027391021189057
                 87.73    0.10315059198201
                 28.56    0.27857066331743
                 10.21    0.44829484945412
                 3.838    0.27808592839527
                0.7466   0.015431561233271
 s    8 1.00
                  9046  -0.00030499009595337
                  1357  -0.0024080263785077
                 309.3   -0.01194444872518
                 87.73  -0.048925992909017
                 28.56   -0.13447272472496
                 10.21   -0.31511257770011
                 3.838   -0.24285783254964
                0.7466     1.0943822068542
 s    1 1.00
                0.2248                   1
 p    3 1.00
                 13.55   0.058905676772132
                 2.917    0.32046110671427
                0.7973    0.75304206179207
 p    1 1.00
                0.2185                   1
 d    1 1.00
                 0.817                   1

6 0
 s    8 1.00
                  6665  0.00069158396281299
                  1000  0.0053257961529341
                   228   0.027060721042034
                 64.71    0.10165684614077
                 21.06     0.2745748236174
                 7.495    0.44829431892377
                 2.797    0.28490261071525
                0.5215   0.015194859206082
 s    8 1.00
                  6665  -0.00029326965268655
                  1000  -0.0023180354739745
                   228  -0.011499786038565
                 64.71  -0.046826727009787
                 21.06   -0.12846616875047
                 7.495   -0.30126627246289
                 2.797   -0.25563070233011
                0.5215      1.093793361012
 s    1 1.00
                0.1596                   1
 p    3 1.00
                 9.439   0.056979251590039
                 2.002    0.31320721150073
                0.5456    0.76037674173753
 p    1 1.00
                0.1517                   1
 d    1 1.00
                  0.55                   1

7 0
 s    8 1.00
                  6665  0.00069158396281299
                  1000  0.0053257961529341
                   228   0.027060721042034
                 64.71    0.10165684614077
                 21.06     0.2745748236174
                 7.495    0.44829431892377
                 2.797    0.28490261071525
                0.5215   0.015194859206082
 s    8 1.00
                  6665  -0.00029326965268655
                  1000  -0.0023180354739745
                   228  -0.011499786038565
                 64.71  -0.046826727009787
                 21.06   -0.12846616875047
                 7.495   -0.30126627246289
                 2.797   -0.25563070233011
                0.5215      1.093793361012
 s    1 1.00
                0.1596                   1
 p    3 1.00
                 9.439   0.056979251590039
                 2.002    0.31320721150073
                0.5456    0.76037674173753
 p    1 1.00
                0.1517                   1
 d    1 1.00
                  0.55                   1

8 0
 s    8 1.00
                  6665  0.00069158396281299
                  1000  0.0053257961529341
                   228   0.027060721042034
                 64.71    0.10165684614077
                 21.06     0.2745748236174
                 7.495    0.44829431892377
                 2.797    0.28490261071525
                0.5215   0.015194859206082
 s    8 1.00
                  6665  -0.00029326965268655
                  1000  -0.0023180354739745
                   228  -0.011499786038565
                 64.71  -0.046826727009787
                 21.06   -0.12846616875047
                 7.495   -0.30126627246289
                 2.797   -0.25563070233011
                0.5215      1.093793361012
 s    1 1.00
                0.1596                   1
 p    3 1.00
                 9.439   0.056979251590039
                 2.002    0.31320721150073
                0.5456    0.76037674173753
 p    1 1.00
                0.1517                   1
 d    1 1.00
                  0.55                   1

9 0
 s    8 1.00
                  6665  0.00069158396281299
                  1000  0.0053257961529341
                   228   0.027060721042034
                 64.71    0.10165684614077
                 21.06     0.2745748236174
                 7.495    0.44829431892377
                 2.797    0.28490261071525
                0.5215   0.015194859206082
 s    8 1.00
                  6665  -0.00029326965268655
                  1000  -0.0023180354739745
                   228  -0.011499786038565
                 64.71  -0.046826727009787
                 21.06   -0.12846616875047
                 7.495   -0.30126627246289
                 2.797   -0.25563070233011
                0.5215      1.093793361012
 s    1 1.00
                0.1596                   1
 p    3 1.00
                 9.439   0.056979251590039
                 2.002    0.31320721150073
                0.5456    0.76037674173753
 p    1 1.00
                0.1517                   1
 d    1 1.00
                  0.55                   1

10 0
 s    8 1.00
                  6665  0.00069158396281299
                  1000  0.0053257961529341
                   228   0.027060721042034
                 64.71    0.10165684614077
                 21.06     0.2745748236174
                 7.495    0.44829431892377
                 2.797    0.28490261071525
                0.5215   0.015194859206082
 s    8 1.00
                  6665  -0.00029326965268655
                  1000  -0.0023180354739745
                   228  -0.011499786038565
                 64.71  -0.046826727009787
                 21.06   -0.12846616875047
                 7.495   -0.30126627246289
                 2.797   -0.25563070233011
                0.5215      1.093793361012
 s    1 1.00
                0.1596                   1
 p    3 1.00
                 9.439   0.056979251590039
                 2.002    0.31320721150073
                0.5456    0.76037674173753
 p    1 1.00
                0.1517                   1
 d    1 1.00
                  0.55                   1

11 0
 s    8 1.00
                  6665  0.00069158396281299
                  1000  0.0053257961529341
                   228   0.027060721042034
                 64.71    0.10165684614077
                 21.06     0.2745748236174
                 7.495    0.44829431892377
                 2.797    0.28490261071525
                0.5215   0.015194859206082
 s    8 1.00
                  6665  -0.00029326965268655
                  1000  -0.0023180354739745
                   228  -0.011499786038565
                 64.71  -0.046826727009787
                 21.06   -0.12846616875047
                 7.495   -0.30126627246289
                 2.797   -0.25563070233011
                0.5215      1.093793361012
 s    1 1.00
                0.1596                   1
 p    3 1.00
                 9.439   0.056979251590039
                 2.002    0.31320721150073
                0.5456    0.76037674173753
 p    1 1.00
                0.1517                   1
 d    1 1.00
                  0.55                   1

12 0
 s    8 1.00
                  6665  0.00069158396281299
                  1000  0.0053257961529341
                   228   0.027060721042034
                 64.71    0.10165684614077
                 21.06     0.2745748236174
                 7.495    0.44829431892377
                 2.797    0.28490261071525
                0.5215   0.015194859206082
 s    8 1.00
                  6665  -0.00029326965268655
                  1000  -0.0023180354739745
                   228  -0.011499786038565
                 64.71  -0.046826727009787
                 21.06   -0.12846616875047
                 7.495   -0.30126627246289
                 2.797   -0.25563070233011
                0.5215      1.093793361012
 s    1 1.00
                0.1596                   1
 p    3 1.00
                 9.439   0.056979251590039
                 2.002    0.31320721150073
                0.5456    0.76037674173753
 p    1 1.00
                0.1517                   1
 d    1 1.00
                  0.55                   1

13 0
 s    8 1.00
                  6665  0.00069158396281299
                  1000  0.0053257961529341
                   228   0.027060721042034
                 64.71    0.10165684614077
                 21.06     0.2745748236174
                 7.495    0.44829431892377
                 2.797    0.28490261071525
                0.5215   0.015194859206082
 s    8 1.00
                  6665  -0.00029326965268655
                  1000  -0.0023180354739745
                   228  -0.011499786038565
                 64.71  -0.046826727009787
                 21.06   -0.12846616875047
                 7.495   -0.30126627246289
                 2.797   -0.25563070233011
                0.5215      1.093793361012
 s    1 1.00
                0.1596                   1
 p    3 1.00
                 9.439   0.056979251590039
                 2.002    0.31320721150073
                0.5456    0.76037674173753
 p    1 1.00
                0.1517                   1
 d    1 1.00
                  0.55                   1

14 0
 s    8 1.00
                  6665  0.00069158396281299
                  1000  0.0053257961529341
                   228   0.027060721042034
                 64.71    0.10165684614077
                 21.06     0.2745748236174
                 7.495    0.44829431892377
                 2.797    0.28490261071525
                0.5215   0.015194859206082
 s    8 1.00
                  6665  -0.00029326965268655
                  1000  -0.0023180354739745
                   228  -0.011499786038565
                 64.71  -0.046826727009787
                 21.06   -0.12846616875047
                 7.495   -0.30126627246289
                 2.797   -0.25563070233011
                0.5215      1.093793361012
 s    1 1.00
                0.1596                   1
 p    3 1.00
                 9.439   0.056979251590039
                 2.002    0.31320721150073
                0.5456    0.76037674173753
 p    1 1.00
                0.1517                   1
 d    1 1.00
                  0.55                   1

15 0
 s    8 1.00
                  6665  0.00069158396281299
                  1000  0.0053257961529341
                   228   0.027060721042034
                 64.71    0.10165684614077
                 21.06     0.2745748236174
                 7.495    0.44829431892377
                 2.797    0.28490261071525
                0.5215   0.015194859206082
 s    8 1.00
                  6665  -0.00029326965268655
                  1000  -0.0023180354739745
                   228  -0.011499786038565
                 64.71  -0.046826727009787
                 21.06   -0.12846616875047
                 7.495   -0.30126627246289
                 2.797   -0.25563070233011
                0.5215      1.093793361012
 s    1 1.00
                0.1596                   1
 p    3 1.00
                 9.439   0.056979251590039
                 2.002    0.31320721150073
                0.5456    0.76037674173753
 p    1 1.00
                0.1517                   1
 d    1 1.00
                  0.55                   1

16 0
 s    8 1.00
                  6665  0.00069158396281299
                  1000  0.0053257961529341
                   228   0.027060721042034
                 64.71    0.10165684614077
                 21.06     0.2745748236174
                 7.495    0.44829431892377
                 2.797    0.28490261071525
                0.5215   0.015194859206082
 s    8 1.00
                  6665  -0.00029326965268655
                  1000  -0.0023180354739745
                   228  -0.011499786038565
                 64.71  -0.046826727009787
                 21.06   -0.12846616875047
                 7.495   -0.30126627246289
                 2.797   -0.25563070233011
                0.5215      1.093793361012
 s    1 1.00
                0.1596                   1
 p    3 1.00
                 9.439   0.056979251590039
                 2.002    0.31320721150073
                0.5456    0.76037674173753
 p    1 1.00
                0.1517                   1
 d    1 1.00
                  0.55                   1

17 0
 s    8 1.00
                  6665  0.00069158396281299
                  1000  0.0053257961529341
                   228   0.027060721042034
                 64.71    0.10165684614077
                 21.06     0.2745748236174
                 7.495    0.44829431892377
                 2.797    0.28490261071525
                0.5215   0.015194859206082
 s    8 1.00
                  6665  -0.00029326965268655
                  1000  -0.0023180354739745
                   228  -0.011499786038565
                 64.71  -0.046826727009787
                 21.06   -0.12846616875047
                 7.495   -0.30126627246289
                 2.797   -0.25563070233011
                0.5215      1.093793361012
 s    1 1.00
                0.1596                   1
 p    3 1.00
                 9.439   0.056979251590039
                 2.002    0.31320721150073
                0.5456    0.76037674173753
 p    1 1.00
                0.1517                   1
 d    1 1.00
                  0.55                   1

18 0
 s    8 1.00
                  6665  0.00069158396281299
                  1000  0.0053257961529341
                   228   0.027060721042034
                 64.71    0.10165684614077
                 21.06     0.2745748236174
                 7.495    0.44829431892377
                 2.797    0.28490261071525
                0.5215   0.015194859206082
 s    8 1.00
                  6665  -0.00029326965268655
                  1000  -0.0023180354739745
                   228  -0.011499786038565
                 64.71  -0.046826727009787
                 21.06   -0.12846616875047
                 7.495   -0.30126627246289
                 2.797   -0.25563070233011
                0.5215      1.093793361012
 s    1 1.00
                0.1596                   1
 p    3 1.00
                 9.439   0.056979251590039
                 2.002    0.31320721150073
                0.5456    0.76037674173753
 p    1 1.00
                0.1517                   1
 d    1 1.00
                  0.55                   1

19 0
 s    8 1.00
                  6665  0.00069158396281299
                  1000  0.0053257961529341
                   228   0.027060721042034
                 64.71    0.10165684614077
                 21.06     0.2745748236174
                 7.495    0.44829431892377
                 2.797    0.28490261071525
                0.5215   0.015194859206082
 s    8 1.00
                  6665  -0.00029326965268655
                  1000  -0.0023180354739745
                   228  -0.011499786038565
                 64.71  -0.046826727009787
                 21.06   -0.12846616875047
                 7.495   -0.30126627246289
                 2.797   -0.25563070233011
                0.5215      1.093793361012
 s    1 1.00
                0.1596                   1
 p    3 1.00
                 9.439   0.056979251590039
                 2.002    0.31320721150073
                0.5456    0.76037674173753
 p    1 1.00
                0.1517                   1
 d    1 1.00
                  0.55                   1

20 0
 s    8 1.00
                  6665  0.00069158396281299
                  1000  0.0053257961529341
                   228   0.027060721042034
                 64.71    0.10165684614077
                 21.06     0.2745748236174
                 7.495    0.44829431892377
                 2.797    0.28490261071525
                0.5215   0.015194859206082
 s    8 1.00
                  6665  -0.00029326965268655
                  1000  -0.0023180354739745
                   228  -0.011499786038565
                 64.71  -0.046826727009787
                 21.06   -0.12846616875047
                 7.495   -0.30126627246289
                 2.797   -0.25563070233011
                0.5215      1.093793361012
 s    1 1.00
                0.1596                   1
 p    3 1.00
                 9.439   0.056979251590039