[Molden Format]
made by pyscf v[2.0.1]
[Atoms] (AU)
C   1   6     0.00000000000000     2.63994739601739     0.00000000000000
C   2   6     2.28626150960564     1.31997369800870     0.00000000000000
C   3   6     2.28626150960564    -1.31997369800870     0.00000000000000
C   4   6     0.00000000000000    -2.63994739601739     0.00000000000000
C   5   6    -2.28626150960564    -1.31997369800870     0.00000000000000
C   6   6    -2.28626150960564     1.31997369800870     0.00000000000000
H   7   1     0.00000000000000     4.68841051504592     0.00000000000000
H   8   1     4.06028260939985     2.34420525752296     0.00000000000000
H   9   1     4.06028260939985    -2.34420525752296     0.00000000000000
H   10   1     0.00000000000000    -4.68841051504592     0.00000000000000
H   11   1    -4.06028260939985    -2.34420525752296     0.00000000000000
H   12   1    -4.06028260939985     2.34420525752296     0.00000000000000
[GTO]
1 0
 s    6 1.00
             3047.5249  0.0018347001629433
             457.36951    0.01403730124668
             103.94869   0.068842606114048
             29.210155    0.23218442062076
              9.286663    0.46794134155879
              3.163927    0.36231203217765
 s    3 1.00
             7.8682724   -0.11933240861517
             1.8812885   -0.16085421161283
             0.5442493     1.1434564825515
 s    1 1.00
             0.1687144                   1
 p    3 1.00
             7.8682724   0.068999095584993
             1.8812885    0.31642397975315
             0.5442493    0.74430825237435
 p    1 1.00
             0.1687144                   1

2 0
 s    6 1.00
             3047.5249  0.0018347001629433
             457.36951    0.01403730124668
             103.94869   0.068842606114048
             29.210155    0.23218442062076
              9.286663    0.46794134155879
              3.163927    0.36231203217765
 s    3 1.00
             7.8682724   -0.11933240861517
             1.8812885   -0.16085421161283
             0.5442493     1.1434564825515
 s    1 1.00
             0.1687144                   1
 p    3 1.00
             7.8682724   0.068999095584993
             1.8812885    0.31642397975315
             0.5442493    0.74430825237435
 p    1 1.00
             0.1687144                   1

3 0
 s    6 1.00
             3047.5249  0.0018347001629433
             457.36951    0.01403730124668
             103.94869   0.068842606114048
             29.210155    0.23218442062076
              9.286663    0.46794134155879
              3.163927    0.36231203217765
 s    3 1.00
             7.8682724   -0.11933240861517
             1.8812885   -0.16085421161283
             0.5442493     1.1434564825515
 s    1 1.00
             0.1687144                   1
 p    3 1.00
             7.8682724   0.068999095584993
             1.8812885    0.31642397975315
             0.5442493    0.74430825237435
 p    1 1.00
             0.1687144                   1

4 0
 s    6 1.00
             3047.5249  0.0018347001629433
             457.36951    0.01403730124668
             103.94869   0.068842606114048
             29.210155    0.23218442062076
              9.286663    0.46794134155879
              3.163927    0.36231203217765
 s    3 1.00
             7.8682724   -0.11933240861517
             1.8812885   -0.16085421161283
             0.5442493     1.1434564825515
 s    1 1.00
             0.1687144                   1
 p    3 1.00
             7.8682724   0.068999095584993
             1.8812885    0.31642397975315
             0.5442493    0.74430825237435
 p    1 1.00
             0.1687144                   1

5 0
 s    6 1.00
             3047.5249  0.0018347001629433
             457.36951    0.01403730124668
             103.94869   0.068842606114048
             29.210155    0.23218442062076
              9.286663    0.46794134155879
              3.163927    0.36231203217765
 s    3 1.00
             7.8682724   -0.11933240861517
             1.8812885   -0.16085421161283
             0.5442493     1.1434564825515
 s    1 1.00
             0.1687144                   1
 p    3 1.00
             7.8682724   0.068999095584993
             1.8812885    0.31642397975315
             0.5442493    0.74430825237435
 p    1 1.00
             0.1687144                   1

6 0
 s    6 1.00
             3047.5249  0.0018347001629433
             457.36951    0.01403730124668
             103.94869   0.068842606114048
             29.210155    0.23218442062076
              9.286663    0.46794134155879
              3.163927    0.36231203217765
 s    3 1.00
             7.8682724   -0.11933240861517
             1.8812885   -0.16085421161283
             0.5442493     1.1434564825515
 s    1 1.00
             0.1687144                   1
 p    3 1.00
             7.8682724   0.068999095584993
             1.8812885    0.31642397975315
             0.5442493    0.74430825237435
 p    1 1.00
             0.1687144                   1

7 0
 s    3 1.00
             18.731137    0.03349459952309
             2.8253937    0.23472694665786
             0.6401217    0.81375731841339
 s    1 1.00
             0.1612778                   1

8 0
 s    3 1.00
             18.731137    0.03349459952309
             2.8253937    0.23472694665786
             0.6401217    0.81375731841339
 s    1 1.00
             0.1612778                   1

9 0
 s    3 1.00
             18.731137    0.03349459952309
             2.8253937    0.23472694665786
             0.6401217    0.81375731841339
 s    1 1.00
             0.1612778                   1

10 0
 s    3 1.00
             18.731137    0.03349459952309
             2.8253937    0.23472694665786
             0.6401217    0.81375731841339
 s    1 1.00
             0.1612778                   1

11 0
 s    3 1.00
             18.731137    0.03349459952309
             2.8253937    0.23472694665786
             0.6401217    0.81375731841339
 s    1 1.00
             0.1612778                   1

12 0
 s    3 1.00
             18.731137    0.03349459952309
             2.8253937    0.23472694665786
             0.6401217    0.81375731841339
 s    1 1.00
             0.1612778                   1

[5d]
[7f]
[9g]

[MO]
 Sym= B1u
 Ene=               0
 Spin= Alpha
 Occup=    1.00000
   1                     0
   2                     0
   3                     0
   4                     0
   5                     0
   6      0.21569883095415
   7                     0
   8                     0
   9      0.13456251349475
  10                     0
  11                     0
  12                     0
  13                     0
  14                     0
  15      0.21569897439785
  16                     0
  17                     0
  18      0.13456224513107
  19                     0
  20                     0
  21                     0
  22                     0
  23                     0
  24      0.21569897439785
  25                     0
  26                     0
  27      0.13456224513107
  28                     0
  29                     0
  30                     0
  31                     0
  32                     0
  33      0.21569883095415
  34                     0
  35                     0
  36      0.13456251349475
  37                     0
  38                     0
  39                     0
  40                     0
  41                     0
  42      0.21569897439785
  43                     0
  44                     0
  45      0.13456224513107
  46                     0
  47                     0
  48                     0
  49                     0
  50                     0
  51      0.21569897439785
  52                     0
  53                     0
  54      0.13456224513107
  55                     0
  56                     0
  57                     0
  58                     0
  59                     0
  60                     0
  61                     0
  62                     0
  63                     0
  64                     0
  65                     0
  66                     0
 Sym= B2g
 Ene=               1
 Spin= Alpha
 Occup=    1.00000
   1                     0
   2                     0
   3                     0
   4                     0
   5                     0
   6      0.32747572945633
   7                     0
   8                     0
   9      0.26131189109554
  10                     0
  11                     0
  12                     0
  13                     0
  14                     0
  15      0.16373778302014
  16                     0
  17                     0
  18      0.13065629530784
  19                     0
  20                     0
  21                     0
  22                     0
  23                     0
  24     -0.16373778302014
  25                     0
  26                     0
  27     -0.13065629530784
  28                     0
  29                     0
  30                     0
  31                     0
  32                     0
  33     -0.32747572945633
  34                     0
  35                     0
  36     -0.26131189109554
  37                     0
  38                     0
  39                     0
  40                     0
  41                     0
  42     -0.16373778302014
  43                     0
  44                     0
  45     -0.13065629530784
  46                     0
  47                     0
  48                     0
  49                     0
  50                     0
  51      0.16373778302014
  52                     0
  53                     0
  54      0.13065629530784
  55                     0
  56                     0
  57                     0
  58                     0
  59                     0
  60                     0
  61                     0
  62                     0
  63                     0
  64                     0
  65                     0
  66                     0
 Sym= B3g
 Ene=               2
 Spin= Alpha
 Occup=    1.00000
   1                     0
   2                     0
   3                     0
   4                     0
   5                     0
   6                     0
   7                     0
   8                     0
   9                     0
  10                     0
  11                     0
  12                     0
  13                     0
  14                     0
  15      0.28360227619685
  16                     0
  17                     0
  18      0.22630291643328
  19                     0
  20                     0
  21                     0
  22                     0
  23                     0
  24      0.28360227619685
  25                     0
  26                     0
  27      0.22630291643328
  28                     0
  29                     0
  30                     0
  31                     0
  32                     0
  33                     0
  34                     0
  35                     0
  36                     0
  37                     0
  38                     0
  39                     0
  40                     0
  41                     0
  42     -0.28360227619685
  43                     0
  44                     0
  45     -0.22630291643328
  46                     0
  47                     0
  48                     0
  49                     0
  50                     0
  51     -0.28360227619685
  52                     0
  53                     0
  54     -0.22630291643328
  55                     0
  56                     0
  57                     0
  58                     0
  59                     0
  60                     0
  61                     0
  62                     0
  63                     0
  64                     0
  65                     0
  66                     0
 Sym= Au
 Ene=               3
 Spin= Alpha
 Occup=    1.00000
   1                     0
   2                     0
   3                     0
   4                     0
   5                     0
   6                     0
   7                     0
   8                     0
   9                     0
  10                     0
  11                     0
  12                     0
  13                     0
  14                     0
  15      0.38729998214452
  16                     0
  17                     0
  18       0.3157373708564
  19                     0
  20                     0
  21                     0
  22                     0
  23                     0
  24     -0.38729998214452
  25                     0
  26                     0
  27      -0.3157373708564
  28                     0
  29                     0
  30                     0
  31                     0
  32                     0
  33                     0
  34                     0
  35                     0
  36                     0
  37                     0
  38                     0
  39                     0
  40                     0
  41                     0
  42      0.38729998214452
  43                     0
  44                     0
  45       0.3157373708564
  46                     0
  47                     0
  48                     0
  49                     0
  50                     0
  51     -0.38729998214452
  52                     0
  53                     0
  54      -0.3157373708564
  55                     0
  56                     0
  57                     0
  58                     0
  59                     0
  60                     0
  61                     0
  62                     0
  63                     0
  64                     0
  65                     0
  66                     0
 Sym= B1u
 Ene=               4
 Spin= Alpha
 Occup=    1.00000
   1                     0
   2                     0
   3                     0
   4                     0
   5                     0
   6      0.44721556531234
   7                     0
   8                     0
   9      0.36458144762256
  10                     0
  11                     0
  12                     0
  13                     0
  14                     0
  15     -0.22360847531518
  16                     0
  17                     0
  18     -0.18229023762147
  19                     0
  20                     0
  21                     0
  22                     0
  23                     0
  24     -0.22360847531518
  25                     0
  26                     0
  27     -0.18229023762147
  28                     0
  29                     0
  30                     0
  31                     0
  32                     0
  33      0.44721556531234
  34                     0
  35                     0
  36      0.36458144762256
  37                     0
  38                     0
  39                     0
  40                     0
  41                     0
  42     -0.22360847531518
  43                     0
  44                     0
  45     -0.18229023762147
  46                     0
  47                     0
  48                     0
  49                     0
  50                     0
  51     -0.22360847531518
  52                     0
  53                     0
  54     -0.18229023762147
  55                     0
  56                     0
  57                     0
  58                     0
  59                     0
  60                     0
  61                     0
  62                     0
  63                     0
  64                     0
  65                     0
  66                     0
 Sym= B2g
 Ene=               5
 Spin= Alpha
 Occup=    1.00000
   1                     0
   2                     0
   3                     0
   4                     0
   5                     0
   6     -0.37876427009551
   7                     0
   8                     0
   9     -0.29764030223723
  10                     0
  11                     0
  12                     0
  13                     0
  14                     0
  15      0.37876340085066
  16                     0
  17                     0
  18      0.29764110348614
  19                     0
  20                     0
  21                     0
  22                     0
  23                     0
  24     -0.37876340085066
  25                     0
  26                     0
  27     -0.29764110348614
  28                     0
  29                     0
  30                     0
  31                     0
  32                     0
  33      0.37876427009551
  34                     0
  35                     0
  36      0.29764030223723
  37                     0
  38                     0
  39                     0
  40                     0
  41                     0
  42     -0.37876340085066
  43                     0
  44                     0
  45     -0.29764110348614
  46                     0
  47                     0
  48                     0
  49                     0
  50                     0
  51      0.37876340085066
  52                     0
  53                     0
  54      0.29764110348614
  55                     0
  56                     0
  57                     0
  58                     0
  59                     0
  60                     0
  61                     0
  62                     0
  63                     0
  64                     0
  65                     0
  66                     0
