[Molden Format]
made by pyscf v[2.0.1]
[Atoms] (AU)
C   1   6     0.00000000000000     2.63994739601739     0.00000000000000
C   2   6     2.28626150960564     1.31997369800870     0.00000000000000
C   3   6     2.28626150960564    -1.31997369800870     0.00000000000000
C   4   6     0.00000000000000    -2.63994739601739     0.00000000000000
C   5   6    -2.28626150960564    -1.31997369800870     0.00000000000000
C   6   6    -2.28626150960564     1.31997369800870     0.00000000000000
H   7   1     0.00000000000000     4.68841051504592     0.00000000000000
H   8   1     4.06028260939985     2.34420525752296     0.00000000000000
H   9   1     4.06028260939985    -2.34420525752296     0.00000000000000
H   10   1     0.00000000000000    -4.68841051504592     0.00000000000000
H   11   1    -4.06028260939985    -2.34420525752296     0.00000000000000
H   12   1    -4.06028260939985     2.34420525752296     0.00000000000000
[GTO]
1 0
 s    6 1.00
             3047.5249  0.0018347001629433
             457.36951    0.01403730124668
             103.94869   0.068842606114048
             29.210155    0.23218442062076
              9.286663    0.46794134155879
              3.163927    0.36231203217765
 s    3 1.00
             7.8682724   -0.11933240861517
             1.8812885   -0.16085421161283
             0.5442493     1.1434564825515
 s    1 1.00
             0.1687144                   1
 p    3 1.00
             7.8682724   0.068999095584993
             1.8812885    0.31642397975315
             0.5442493    0.74430825237435
 p    1 1.00
             0.1687144                   1

2 0
 s    6 1.00
             3047.5249  0.0018347001629433
             457.36951    0.01403730124668
             103.94869   0.068842606114048
             29.210155    0.23218442062076
              9.286663    0.46794134155879
              3.163927    0.36231203217765
 s    3 1.00
             7.8682724   -0.11933240861517
             1.8812885   -0.16085421161283
             0.5442493     1.1434564825515
 s    1 1.00
             0.1687144                   1
 p    3 1.00
             7.8682724   0.068999095584993
             1.8812885    0.31642397975315
             0.5442493    0.74430825237435
 p    1 1.00
             0.1687144                   1

3 0
 s    6 1.00
             3047.5249  0.0018347001629433
             457.36951    0.01403730124668
             103.94869   0.068842606114048
             29.210155    0.23218442062076
              9.286663    0.46794134155879
              3.163927    0.36231203217765
 s    3 1.00
             7.8682724   -0.11933240861517
             1.8812885   -0.16085421161283
             0.5442493     1.1434564825515
 s    1 1.00
             0.1687144                   1
 p    3 1.00
             7.8682724   0.068999095584993
             1.8812885    0.31642397975315
             0.5442493    0.74430825237435
 p    1 1.00
             0.1687144                   1

4 0
 s    6 1.00
             3047.5249  0.0018347001629433
             457.36951    0.01403730124668
             103.94869   0.068842606114048
             29.210155    0.23218442062076
              9.286663    0.46794134155879
              3.163927    0.36231203217765
 s    3 1.00
             7.8682724   -0.11933240861517
             1.8812885   -0.16085421161283
             0.5442493     1.1434564825515
 s    1 1.00
             0.1687144                   1
 p    3 1.00
             7.8682724   0.068999095584993
             1.8812885    0.31642397975315
             0.5442493    0.74430825237435
 p    1 1.00
             0.1687144                   1

5 0
 s    6 1.00
             3047.5249  0.0018347001629433
             457.36951    0.01403730124668
             103.94869   0.068842606114048
             29.210155    0.23218442062076
              9.286663    0.46794134155879
              3.163927    0.36231203217765
 s    3 1.00
             7.8682724   -0.11933240861517
             1.8812885   -0.16085421161283
             0.5442493     1.1434564825515
 s    1 1.00
             0.1687144                   1
 p    3 1.00
             7.8682724   0.068999095584993
             1.8812885    0.31642397975315
             0.5442493    0.74430825237435
 p    1 1.00
             0.1687144                   1

6 0
 s    6 1.00
             3047.5249  0.0018347001629433
             457.36951    0.01403730124668
             103.94869   0.068842606114048
             29.210155    0.23218442062076
              9.286663    0.46794134155879
              3.163927    0.36231203217765
 s    3 1.00
             7.8682724   -0.11933240861517
             1.8812885   -0.16085421161283
             0.5442493     1.1434564825515
 s    1 1.00
             0.1687144                   1
 p    3 1.00
             7.8682724   0.068999095584993
             1.8812885    0.31642397975315
             0.5442493    0.74430825237435
 p    1 1.00
             0.1687144                   1

7 0
 s    3 1.00
             18.731137    0.03349459952309
             2.8253937    0.23472694665786
             0.6401217    0.81375731841339
 s    1 1.00
             0.1612778                   1

8 0
 s    3 1.00
             18.731137    0.03349459952309
             2.8253937    0.23472694665786
             0.6401217    0.81375731841339
 s    1 1.00
             0.1612778                   1

9 0
 s    3 1.00
             18.731137    0.03349459952309
             2.8253937    0.23472694665786
             0.6401217    0.81375731841339
 s    1 1.00
             0.1612778                   1

10 0
 s    3 1.00
             18.731137    0.03349459952309
             2.8253937    0.23472694665786
             0.6401217    0.81375731841339
 s    1 1.00
             0.1612778                   1

11 0
 s    3 1.00
             18.731137    0.03349459952309
             2.8253937    0.23472694665786
             0.6401217    0.81375731841339
 s    1 1.00
             0.1612778                   1

12 0
 s    3 1.00
             18.731137    0.03349459952309
             2.8253937    0.23472694665786
             0.6401217    0.81375731841339
 s    1 1.00
             0.1612778                   1

[5d]
[7f]
[9g]

[MO]
 Sym= A
 Ene=               0
 Spin= Alpha
 Occup=    1.00000
   1                     0
   2                     0
   3                     0
   4                     0
   5                     0
   6     -0.10113705804844
   7                     0
   8                     0
   9    -0.096387548685184
  10                     0
  11                     0
  12                     0
  13                     0
  14                     0
  15      0.68995660398194
  16                     0
  17                     0
  18      0.53780629842629
  19                     0
  20                     0
  21                     0
  22                     0
  23                     0
  24     -0.10113644080777
  25                     0
  26                     0
  27    -0.096388453591442
  28                     0
  29                     0
  30                     0
  31                     0
  32                     0
  33     0.019054411184321
  34                     0
  35                     0
  36     -0.00423379914293
  37                     0
  38                     0
  39                     0
  40                     0
  41                     0
  42    0.0025612634262962
  43                     0
  44                     0
  45    -0.0069540005582507
  46                     0
  47                     0
  48                     0
  49                     0
  50                     0
  51     0.019054346537703
  52                     0
  53                     0
  54    -0.004233988124963
  55                     0
  56                     0
  57                     0
  58                     0
  59                     0
  60                     0
  61                     0
  62                     0
  63                     0
  64                     0
  65                     0
  66                     0
 Sym= A
 Ene=               1
 Spin= Alpha
 Occup=    1.00000
   1                     0
   2                     0
   3                     0
   4                     0
   5                     0
   6    0.0025606323647552
   7                     0
   8                     0
   9    -0.0069535268616484
  10                     0
  11                     0
  12                     0
  13                     0
  14                     0
  15     0.019053807563169
  16                     0
  17                     0
  18    -0.0042334659623635
  19                     0
  20                     0
  21                     0
  22                     0
  23                     0
  24     -0.10113717499596
  25                     0
  26                     0
  27    -0.096387567598183
  28                     0
  29                     0
  30                     0
  31                     0
  32                     0
  33      0.68995678443131
  34                     0
  35                     0
  36       0.5378057584896
  37                     0
  38                     0
  39                     0
  40                     0
  41                     0
  42     -0.10113717512986
  43                     0
  44                     0
  45    -0.096387567708112
  46                     0
  47                     0
  48                     0
  49                     0
  50                     0
  51     0.019053807786153
  52                     0
  53                     0
  54     -0.00423346578135
  55                     0
  56                     0
  57                     0
  58                     0
  59                     0
  60                     0
  61                     0
  62                     0
  63                     0
  64                     0
  65                     0
  66                     0
 Sym= A
 Ene=               2
 Spin= Alpha
 Occup=    1.00000
   1                     0
   2                     0
   3                     0
   4                     0
   5                     0
   6    -0.019054411621245
   7                     0
   8                     0
   9    0.0042337986095749
  10                     0
  11                     0
  12                     0
  13                     0
  14                     0
  15      0.10113644353387
  16                     0
  17                     0
  18     0.096388455543288
  19                     0
  20                     0
  21                     0
  22                     0
  23                     0
  24     -0.68995660498393
  25                     0
  26                     0
  27     -0.53780629944661
  28                     0
  29                     0
  30                     0
  31                     0
  32                     0
  33      0.10113706250206
  34                     0
  35                     0
  36     0.096387552019399
  37                     0
  38                     0
  39                     0
  40                     0
  41                     0
  42    -0.019054345696685
  43                     0
  44                     0
  45    0.0042339886074663
  46                     0
  47                     0
  48                     0
  49                     0
  50                     0
  51    -0.0025612625833148
  52                     0
  53                     0
  54    0.0069540009752763
  55                     0
  56                     0
  57                     0
  58                     0
  59                     0
  60                     0
  61                     0
  62                     0
  63                     0
  64                     0
  65                     0
  66                     0
 Sym= A
 Ene=               3
 Spin= Alpha
 Occup=    1.00000
   1                     0
   2                     0
   3                     0
   4                     0
   5                     0
   6      0.10113705812788
   7                     0
   8                     0
   9       0.0963875486964
  10                     0
  11                     0
  12                     0
  13                     0
  14                     0
  15    -0.019054344990049
  16                     0
  17                     0
  18    0.0042339893326164
  19                     0
  20                     0
  21                     0
  22                     0
  23                     0
  24    -0.002561265221232
  25                     0
  26                     0
  27    0.0069539990533562
  28                     0
  29                     0
  30                     0
  31                     0
  32                     0
  33     -0.01905441100788
  34                     0
  35                     0
  36    0.0042337992273155
  37                     0
  38                     0
  39                     0
  40                     0
  41                     0
  42       0.1011364428861
  43                     0
  44                     0
  45      0.09638845522678
  46                     0
  47                     0
  48                     0
  49                     0
  50                     0
  51     -0.68995660429749
  52                     0
  53                     0
  54     -0.53780629875494
  55                     0
  56                     0
  57                     0
  58                     0
  59                     0
  60                     0
  61                     0
  62                     0
  63                     0
  64                     0
  65                     0
  66                     0
 Sym= A
 Ene=               4
 Spin= Alpha
 Occup=    1.00000
   1                     0
   2                     0
   3                     0
   4                     0
   5                     0
   6      0.68995678570724
   7                     0
   8                     0
   9      0.53780575973814
  10                     0
  11                     0
  12                     0
  13                     0
  14                     0
  15      -0.1011371797457
  16                     0
  17                     0
  18    -0.096387571144775
  19                     0
  20                     0
  21                     0
  22                     0
  23                     0
  24     0.019053808384006
  25                     0
  26                     0
  27    -0.0042334651067003
  28                     0
  29                     0
  30                     0
  31                     0
  32                     0
  33    0.0025606310390712
  34                     0
  35                     0
  36    -0.0069535276375568
  37                     0
  38                     0
  39                     0
  40                     0
  41                     0
  42     0.019053808035617
  43                     0
  44                     0
  45    -0.0042334653903028
  46                     0
  47                     0
  48                     0
  49                     0
  50                     0
  51     -0.10113717944515
  52                     0
  53                     0
  54    -0.096387570899344
  55                     0
  56                     0
  57                     0
  58                     0
  59                     0
  60                     0
  61                     0
  62                     0
  63                     0
  64                     0
  65                     0
  66                     0
 Sym= A
 Ene=               5
 Spin= Alpha
 Occup=    1.00000
   1                     0
   2                     0
   3                     0
   4                     0
   5                     0
   6     0.019054411439561
   7                     0
   8                     0
   9    -0.004233798902262
  10                     0
  11                     0
  12                     0
  13                     0
  14                     0
  15    0.0025612639494376
  16                     0
  17                     0
  18    -0.0069540000299816
  19                     0
  20                     0
  21                     0
  22                     0
  23                     0
  24     0.019054347396338
  25                     0
  26                     0
  27    -0.0042339873634769
  28                     0
  29                     0
  30                     0
  31                     0
  32                     0
  33     -0.10113706257587
  34                     0
  35                     0
  36     -0.09638755223485
  37                     0
  38                     0
  39                     0
  40                     0
  41                     0
  42      0.68995660472288
  43                     0
  44                     0
  45      0.53780629910233
  46                     0
  47                     0
  48                     0
  49                     0
  50                     0
  51     -0.10113644138268
  52                     0
  53                     0
  54    -0.096388453947831
  55                     0
  56                     0
  57                     0
  58                     0
  59                     0
  60                     0
  61                     0
  62                     0
  63                     0
  64                     0
  65                     0
  66                     0
