 &FCI NORB=  26,NELEC=26,MS2=0,
  ORBSYM=1,1,1,1,1,1,1,1,1,1,1,1,1,1,1,1,1,1,1,1,1,1,1,1,1,1,
  ISYM=1,
 &END
 0.1843249976091131    1    1    1    1
 0.1499584298586689    1    1    2    2
 -0.03335119947834038    1    1    3    1
 0.1470033013120192    1    1    3    3
 0.03478180703745459    1    1    4    2
 0.1451568588271442    1    1    4    4
 0.1789366994154747    1    1    5    5
 0.0003191916430170026    1    1    6    1
 -0.03569024672355135    1    1    6    3
 0.1430653578578666    1    1    6    6
 0.1467907311920154    1    1    7    7
 -0.03127481771309962    1    1    8    5
 0.1441444176713867    1    1    8    8
 -0.0005960632624370153    1    1    9    2
 -0.03651955830660565    1    1    9    4
 0.1394056255072177    1    1    9    9
 -0.03236792682722706    1    1   10    7
 0.1421153729707393    1    1   10   10
 -2.39036585205805e-05    1    1   11    1
 0.001243836875943666    1    1   11    3
 -0.03882628447112849    1    1   11    6
 0.172757971047737    1    1   11   11
 -4.416902687211296e-05    1    1   12    5
 0.0327145812624764    1    1   12    8
 0.1411621072942219    1    1   12   12
 0.000305242273309896    1    1   13    7
 -0.03184124970468178    1    1   13   10
 0.1635834227481044    1    1   13   13
 -0.0002177460231332701    1    1   14    2
 0.0008129751441133076    1    1   14    4
 -0.01899956369531178    1    1   14    9
 0.1641016301786464    1    1   14   14
 0.0001842702233860348    1    1   15    1
 -0.0009877778376093131    1    1   15    3
 -0.001170455110330701    1    1   15    6
 -0.02610925208394895    1    1   15   11
 0.1415202175208322    1    1   15   15
 3.491383354846731e-05    1    1   16    5
 0.001377933383059594    1    1   16    8
 0.02525607968027001    1    1   16   12
 0.1710561026894894    1    1   16   16
 0.001774372929082015    1    1   17    2
 0.002629983382969197    1    1   17    4
 -0.01001211935656353    1    1   17    9
 -0.03291962904642096    1    1   17   14
 0.1432051394003716    1    1   17   17
 0.0005379453698090451    1    1   18    7
 -0.009714373293681331    1    1   18   10
 -0.01879829914958052    1    1   18   13
 0.1366877613398118    1    1   18   18
 0.002206997088014299    1    1   19    1
 -0.004421031819759165    1    1   19    3
 0.006485466069033846    1    1   19    6
 -0.002103352729582758    1    1   19   11
 0.03355473772222965    1    1   19   15
 0.146509871417985    1    1   19   19
 -0.005524707655786415    1    1   20    2
 -0.004935337994966558    1    1   20    4
 0.001070861866556163    1    1   20    9
 0.0009464016468353415    1    1   20   14
 -0.03261620558074156    1    1   20   17
 0.1520053543759113    1    1   20   20
 -0.009181715431401206    1    1   21    1
 0.004141536825271992    1    1   21    3
 -0.0005335537097322342    1    1   21    6
 -0.000146939337875342    1    1   21   11
 -0.0007869920154118207    1    1   21   15
 -0.03041486547974773    1    1   21   19
 0.1846981340201976    1    1   21   21
 0.0002371404083297394    1    1   22    5
 -0.006053506905687235    1    1   22    8
 0.0008892902845664733    1    1   22   12
 -0.04060729256369063    1    1   22   16
 0.1430824919972533    1    1   22   22
 0.004382410574164147    1    1   23    7
 -0.002610385140359678    1    1   23   10
 -0.001441462818540802    1    1   23   13
 0.03722594855541213    1    1   23   18
 0.1468623651396912    1    1   23   23
 -0.003541018154976826    1    1   24    5
 0.004257393844029079    1    1   24    8
 0.0008024964891479661    1    1   24   12
 0.001723018550464603    1    1   24   16
 -0.03597550828691099    1    1   24   22
 0.1502911504756441    1    1   24   24
 0.00527709986002764    1    1   25    7
 -0.001969784919374887    1    1   25   10
 0.0004109443425812327    1    1   25   13
 0.001113482140657039    1    1   25   18
 0.0345408378382015    1    1   25   23
 0.1557808688639993    1    1   25   25
 0.008933831475611269    1    1   26    5
 -0.002651884989747449    1    1   26    8
 -0.0003065752600482476    1    1   26   12
 0.0001411744088041819    1    1   26   16
 0.0008857085450506757    1    1   26   22
 -0.03229651718645003    1    1   26   24
 0.1905639680395168    1    1   26   26
 0.06030494445056488    2    1    2    1
 0.03950052570995312    2    1    3    2
 0.02185696229309892    2    1    4    1
 -0.03825722306725128    2    1    4    3
 -0.02251463481886896    2    1    6    2
 -0.03712023794382212    2    1    6    4
 0.0574292683523351    2    1    7    5
 0.03808879272217278    2    1    8    7
 -0.0009444479006160676    2    1    9    1
 0.02324222459474675    2    1    9    3
 -0.03431210212335759    2    1    9    6
 -0.01980357021759774    2    1   10    5
 0.03698658331053028    2    1   10    8
 0.001514176885819834    2    1   11    2
 0.02576728966947797    2    1   11    4
 -0.05348844507770663    2    1   11    9
 0.02017613252805171    2    1   12    7
 -0.03632312229275085    2    1   12   10
 0.0005588444957126169    2    1   13    5
 -0.02008129687233791    2    1   13    8
 -0.04697233054028923    2    1   13   12
 -0.0002198376529696388    2    1   14    1
 -0.0008398046049946025    2    1   14    3
 0.01657413517656073    2    1   14    6
 -0.02753202182448693    2    1   14   11
 -0.0007531776266586779    2    1   15    2
 0.002260646136419138    2    1   15    4
 0.007332021564764102    2    1   15    9
 -0.0473279434373337    2    1   15   14
 0.001429913365196408    2    1   16    7
 -0.01923263927217342    2    1   16   10
 0.02621629643168225    2    1   16   13
 0.001572198102258068    2    1   17    1
 -0.0004128310271641864    2    1   17    3
 -0.002088359300488448    2    1   17    6
 0.0200894559528749    2    1   17   11
 -0.03657755674276988    2    1   17   15
 0.0005953043765376619    2    1   18    5
 -0.007097425435633545    2    1   18    8
 0.007423879668792304    2    1   18   12
 0.05399742037560418    2    1   18   16
 -0.001720537316690287    2    1   19    2
 0.002552865594523953    2    1   19    4
 -0.00739879213076024    2    1   19    9
 -0.02079631658434205    2    1   19   14
 0.03807281215434656    2    1   19   17
 -0.004676054462124928    2    1   20    1
 -0.002776682601571576    2    1   20    3
 0.00500040509671246    2    1   20    6
 -0.00199523779503795    2    1   20   11
 0.02057512641703051    2    1   20   15
 0.04059254022290261    2    1   20   19
 -0.005561105274764791    2    1   21    2
 -0.003987800340447104    2    1   21    4
 0.0009316854753739597    2    1   21    9
 0.0009397991822767054    2    1   21   14
 -0.01969551172224419    2    1   21   17
 0.05850999356215893    2    1   21   20
 -0.004593603890266406    2    1   22    7
 0.002195230926332547    2    1   22   10
 -0.01673625383513763    2    1   22   13
 0.0329496675130155    2    1   22   18
 0.003543220963727943    2    1   23    5
 -0.002624312889417476    2    1   23    8
 -0.002012062551979682    2    1   23   12
 0.02725614584146741    2    1   23   16
 -0.03755472095739598    2    1   23   22
 0.002827310904061282    2    1   24    7
 0.0003916316434891011    2    1   24   10
 0.001019275210663775    2    1   24   13
 -0.02356827295927302    2    1   24   18
 -0.03973256636852224    2    1   24   23
 0.005540280431410145    2    1   25    5
 0.001526591181866296    2    1   25    8
 0.00088461827809268    2    1   25   12
 0.001966521767062033    2    1   25   16
 -0.02244210991512533    2    1   25   22
 0.04240715286995364    2    1   25   24
 0.004664251654061374    2    1   26    7
 -0.001889537407164373    2    1   26   10
 0.0003015342393728559    2    1   26   13
 0.001215950385261373    2    1   26   18
 0.02136641204309634    2    1   26   23
 0.06185882605900666    2    1   26   25
 0.149958429858669    2    2    1    1
 0.159408303122242    2    2    2    2
 0.009026088656769547    2    2    3    1
 0.1428726533061336    2    2    3    3
 0.007944731075858224    2    2    4    2
 0.1410898973756184    2    2    4    4
 0.1461182366552214    2    2    5    5
 -0.01639065963012194    2    2    6    1
 -0.009955324544063719    2    2    6    3
 0.1377450472240813    2    2    6    6
 0.1547948097830841    2    2    7    7
 0.008448504677297878    2    2    8    5
 0.1396581324954778    2    2    8    8
 0.01660789211028039    2    2    9    2
 -0.01367444305853391    2    2    9    4
 0.1485323799421064    2    2    9    9
 -0.006753119522761204    2    2   10    7
 0.1380696829569233    2    2   10   10
 0.001225201483443538    2    2   11    1
 -0.01832693340956484    2    2   11    3
 -0.002367918332911191    2    2   11    6
 0.1528953932356451    2    2   11   11
 0.01449679920715319    2    2   12    5
 0.007994364121492702    2    2   12    8
 0.1434155469138053    2    2   12   12
 -0.01423608252327764    2    2   13    7
 -0.0008088727472920431    2    2   13   10
 0.1432532299899932    2    2   13   13
 -0.0007586480639013801    2    2   14    2
 -0.01261987795158706    2    2   14    4
 0.002680968147191295    2    2   14    9
 0.1448097281696823    2    2   14   14
 -0.0007448674592667647    2    2   15    1
 -0.002622496084764541    2    2   15    3
 -0.008898076765220347    2    2   15    6
 -0.002075029979461876    2    2   15   11
 0.1447854073560605    2    2   15   15
 0.001139138826098868    2    2   16    5
 -0.01423546143902699    2    2   16    8
 0.001972855968579992    2    2   16   12
 0.1526461813603234    2    2   16   16
 0.001298479376991167    2    2   17    2
 0.002992968395310214    2    2   17    4
 -0.01496526367500632    2    2   17    9
 -0.001862753910293647    2    2   17   14
 0.1401706276892271    2    2   17   17
 -0.005315168782727839    2    2   18    7
 -0.01457099247141936    2    2   18   10
 0.00182220818054374    2    2   18   13
 0.1481289183222925    2    2   18   18
 -0.001158343421695994    2    2   19    1
 -0.00484756667230262    2    2   19    3
 0.003724687732855997    2    2   19    6
 0.01426837636071467    2    2   19   11
 0.008699710909567473    2    2   19   15
 0.1435302896790089    2    2   19   19
 -0.007884934783036352    2    2   20    2
 -0.002065859227431382    2    2   20    4
 -0.005086427553758413    2    2   20    9
 -0.0141397201523384    2    2   20   14
 -0.005987055722325138    2    2   20   17
 0.1584822980017002    2    2   20   20
 -0.006635675894938623    2    2   21    1
 -0.001278719947979282    2    2   21    3
 0.003849786189175562    2    2   21    6
 -0.001627162041476337    2    2   21   11
 0.01396861758901797    2    2   21   15
 0.009249359949395351    2    2   21   19
 0.1485590612080256    2    2   21   21
 -0.003790124523702882    2    2   22    5
 -0.003185705798763766    2    2   22    8
 0.009202971238517724    2    2   22   12
 -0.003388291477702505    2    2   22   16
 0.1373880374318541    2    2   22   22
 0.001532164926213195    2    2   23    7
 -0.002897855086298016    2    2   23   10
 0.01207409241146707    2    2   23   13
 0.01534890001693035    2    2   23   18
 0.1434740478115444    2    2   23   23
 0.001744572113467857    2    2   24    5
 0.004598848521071838    2    2   24    8
 0.002174156288583914    2    2   24   12
 -0.01910528531712004    2    2   24   16
 -0.009614639532557815    2    2   24   22
 0.1472976036694695    2    2   24   24
 0.007691907278129714    2    2   25    7
 -0.001324178190371824    2    2   25   10
 0.0008286179259929314    2    2   25   13
 -0.01629436749209606    2    2   25   18
 0.006170562688814312    2    2   25   23
 0.1636212663762684    2    2   25   25
 0.006354460267200612    2    2   26    5
 0.001102716163779425    2    2   26    8
 0.0009290431953749077    2    2   26   12
 0.001617059287501253    2    2   26   16
 -0.0156269333962532    2    2   26   22
 0.01047961902279362    2    2   26   24
 0.1526086658113228    2    2   26   26
 -0.03335119947834039    3    1    1    1
 0.00902608865676955    3    1    2    2
 0.040989396875073    3    1    3    1
 -0.004065023341094032    3    1    3    3
 -0.02600800422439331    3    1    4    2
 -0.004022546230051924    3    1    4    4
 -0.03175478494539042    3    1    5    5
 -0.01612098769097321    3    1    6    1
 0.02493195343256429    3    1    6    3
 -0.005232519176186101    3    1    6    6
 0.007685800776188203    3    1    7    7
 0.0383760074239901    3    1    8    5
 -0.004344686945961021    3    1    8    8
 0.01662218191032796    3    1    9    2
 0.02215639866313263    3    1    9    4
 0.008755381682134336    3    1    9    9
 0.02477662301953882    3    1   10    7
 -0.003920886571505269    3    1   10   10
 0.001187318724772675    3    1   11    1
 -0.01890904880931045    3    1   11    3
 0.03536157714291691    3    1   11    6
 -0.01944579728298937    3    1   11   11
 0.01401719359273087    3    1   12    5
 -0.0239002060505179    3    1   12    8
 0.002161786961480825    3    1   12   12
 -0.01402536727914919    3    1   13    7
 0.02997251186567179    3    1   13   10
 -0.01959482804442641    3    1   13   13
 -0.0004937128375832847    3    1   14    2
 -0.01289246491708658    3    1   14    4
 0.02087253969110569    3    1   14    9
 -0.01860094174097343    3    1   14   14
 -0.0009129967598911495    3    1   15    1
 -0.001516057190233881    3    1   15    3
 -0.007541720699354805    3    1   15    6
 0.02331333160400008    3    1   15   11
 0.003125165976941714    3    1   15   15
 0.001049932751368152    3    1   16    5
 -0.01508050842595143    3    1   16    8
 -0.02257025553515803    3    1   16   12
 -0.01802203546695239    3    1   16   16
 -0.0005378845883337286    3    1   17    2
 0.0002349571916868314    3    1   17    4
 -0.004685177366452956    3    1   17    9
 0.03000790668108385    3    1   17   14
 -0.002961990127431289    3    1   17   17
 -0.005675608298868907    3    1   18    7
 -0.004603357698150754    3    1   18   10
 0.01985483885239451    3    1   18   13
 0.01099891950613224    3    1   18   18
 -0.003338236336816377    3    1   19    1
 -0.0003015382546250982    3    1   19    3
 -0.002742743030113774    3    1   19    6
 0.0158230768752978    3    1   19   11
 -0.02404575919563444    3    1   19   15
 -0.002913649417983985    3    1   19   19
 -0.002167546054514519    3    1   20    2
 0.002862371006554147    3    1   20    4
 -0.005976695506439241    3    1   20    9
 -0.01455707683517232    3    1   20   14
 0.02577145299707299    3    1   20   17
 0.006185903600549473    3    1   20   20
 0.002670747581120275    3    1   21    1
 -0.005333513959540385    3    1   21    3
 0.004247115906044916    3    1   21    6
 -0.001413940035183583    3    1   21   11
 0.01423161938786121    3    1   21   15
 0.03833913660491022    3    1   21   19
 -0.03501094421614149    3    1   21   21
 -0.003896940500039394    3    1   22    5
 0.002832605993260724    3    1   22    8
 0.008098552115782936    3    1   22   12
 0.03609887146302189    3    1   22   16
 -0.00559584297742589    3    1   22   22
 -0.002829700552703421    3    1   23    7
 -0.0001704743313856365    3    1   23   10
 0.01297703281391539    3    1   23   13
 -0.0212263456369373    3    1   23   18
 -0.003376912213072447    3    1   23   23
 0.005186087009647514    3    1   24    5
 0.0002279649968199942    3    1   24    8
 0.001265028237576237    3    1   24   12
 -0.02012658312078295    3    1   24   16
 0.02554434976024791    3    1   24   22
 -0.002985152306215363    3    1   24   24
 0.002227224443136545    3    1   25    7
 0.0007016982886072629    3    1   25   10
 0.0003757032541170291    3    1   25   13
 -0.0168237825451071    3    1   25   18
 -0.02749921787805377    3    1   25   23
 0.007445923503609746    3    1   25   25
 -0.002688439401569139    3    1   26    5
 0.003714979420673605    3    1   26    8
 0.00120787101346606    3    1   26   12
 0.001405839919121543    3    1   26   16
 -0.01593572860053765    3    1   26   22
 0.04139003184226477    3    1   26   24
 -0.03686885496276315    3    1   26   26
 0.03950052570995313    3    2    2    1
 0.0500863994760689    3    2    3    2
 -0.008668994780793403    3    2    4    1
 -0.0382577219252014    3    2    4    3
 -0.004551411556033732    3    2    6    2
 -0.03572013894569105    3    2    6    4
 0.03769049795248845    3    2    7    5
 0.04725005768197289    3    2    8    7
 0.01260512699289491    3    2    9    1
 0.007943606800594328    3    2    9    3
 -0.04359305066333306    3    2    9    6
 0.008179630757294427    3    2   10    5
 0.03684306708009953    3    2   10    8
 -0.0138520904500758    3    2   11    2
 0.0001162519160463282    3    2   11    4
 -0.0451487766216256    3    2   11    9
 0.003144397741892872    3    2   12    7
 -0.04006152430946514    3    2   12   10
 -0.01044093272031077    3    2   13    5
 0.001056748573659742    3    2   13    8
 -0.03851416382339139    3    2   13   12
 -0.0002430277465352694    3    2   14    1
 0.009623316009763978    3    2   14    3
 -0.0001281888086386012    3    2   14    6
 -0.02362361054089288    3    2   14   11
 -0.001914931471869207    3    2   15    2
 0.00861595940553051    3    2   15    4
 -0.009220507026324591    3    2   15    9
 -0.03992276959202334    3    2   15   14
 -0.01117737340465622    3    2   16    7
 -0.0007426757721752866    3    2   16   10
 0.02263686104216275    3    2   16   13
 -0.0004846562442835317    3    2   17    1
 -0.0008144137038046766    3    2   17    3
 0.004583863038775345    3    2   17    6
 0.00130497952324523    3    2   17   11
 -0.04123548709376549    3    2   17   15
 -0.004585667711119151    3    2   18    5
 -0.01078637634425716    3    2   18    8
 -0.008650137017159958    3    2   18   12
 0.04667558865206065    3    2   18   16
 -0.003787677971539615    3    2   19    2
 0.002956304341024283    3    2   19    4
 -0.01119347329294509    3    2   19    9
 5.079413242634862e-05    3    2   19   14
 0.03874790785199236    3    2   19   17
 -0.002800525421863307    3    2   20    1
 -0.005181970105112533    3    2   20    3
 0.00244138090373858    3    2   20    6
 0.01112122011557742    3    2   20   11
 0.003450672218559081    3    2   20   15
 0.04839415059365309    3    2   20   19
 -0.00333847938284507    3    2   21    2
 0.001288092308974479    3    2   21    4
 -0.004438943922273381    3    2   21    9
 -0.01022257061155525    3    2   21   14
 0.007845027522647674    3    2   21   17
 0.03697189460067803    3    2   21   20
 -0.002036366602839087    3    2   22    7
 -0.004838182240662107    3    2   22   10
 -0.0008767106375357289    3    2   22   13
 0.04422054592641211    3    2   22   18
 -0.001628388191029951    3    2   23    5
 -0.002941123657635223    3    2   23    8
 -0.008911596744539119    3    2   23   12
 0.00085022113541577    3    2   23   16
 -0.03590664407336555    3    2   23   22
 0.005226541171226927    3    2   24    7
 0.0007557793136729768    3    2   24   10
 -0.009226698804473991    3    2   24   13
 -0.0090779566279487    3    2   24   18
 -0.04038231125405418    3    2   24   23
 0.003243275758579254    3    2   25    5
 0.003775671472934059    3    2   25    8
 0.001649025131747672    3    2   25   12
 -0.01443907536662318    3    2   25   16
 -0.003728743869086726    3    2   25   22
 0.0513833432640288    3    2   25   24
 0.002660607259653775    3    2   26    7
 0.0007303576026728022    3    2   26   10
 7.332450441887203e-05    3    2   26   13
 -0.01222575270559354    3    2   26   18
 -0.009092752274545464    3    2   26   23
 0.03878241803926654    3    2   26   25
 0.1470033013120191    3    3    1    1
 0.1428726533061336    3    3    2    2
 -0.004065023341094039    3    3    3    1
 0.1497407842167436    3    3    3    3
 -0.002704619828508541    3    3    4    2
 0.1378473496519077    3    3    4    4
 0.1431020260658979    3    3    5    5
 0.006388710739695154    3    3    6    1
 -0.009478762443873972    3    3    6    3
 0.1427585575772789    3    3    6    6
 0.1390969683938607    3    3    7    7
 -0.003850602440483992    3    3    8    5
 0.1452361128249667    3    3    8    8
 0.006102481384961619    3    3    9    2
 -0.004489502953507696    3    3    9    4
 0.1428400469185349    3    3    9    9
 0.002408484856606428    3    3   10    7
 0.138422252592094    3    3   10   10
 -0.01176766913146895    3    3   11    1
 0.0006723160306638064    3    3   11    3
 -0.005227025774615455    3    3   11    6
 0.149409629317818    3    3   11   11
 -0.005810041752389034    3    3   12    5
 0.003768874382687263    3    3   12    8
 0.1378535291041708    3    3   12   12
 0.0007218970490260174    3    3   13    7
 -0.003842370354276997    3    3   13   10
 0.1398019740026864    3    3   13   13
 0.007463872733209693    3    3   14    2
 -4.898160068614945e-05    3    3   14    4
 0.001473133530892197    3    3   14    9
 0.1413529487314187    3    3   14   14
 -0.0003018095904626714    3    3   15    1
 -0.007997494296147895    3    3   15    3
 0.00419659911596483    3    3   15    6
 -0.003453557333602707    3    3   15   11
 0.1401868284451619    3    3   15   15
 -0.009673329717644201    3    3   16    5
 0.0003302640643662654    3    3   16    8
 0.003259995452411686    3    3   16   12
 0.1493170889906629    3    3   16   16
 -0.0005238643486588094    3    3   17    2
 -0.002711703146350331    3    3   17    4
 -0.001661124716106398    3    3   17    9
 -0.003794317572128672    3    3   17   14
 0.1410848250941712    3    3   17   17
 -0.00838569854658055    3    3   18    7
 -0.001449778703056618    3    3   18   10
 0.0008941038340759738    3    3   18   13
 0.1434021106266891    3    3   18   18
 5.479214477719135e-05    3    3   19    1
 -0.006922459392679191    3    3   19    3
 0.009054723230434505    3    3   19    6
 -0.0002284456944722054    3    3   19   11
 0.003711142770838429    3    3   19   15
 0.1477037197376552    3    3   19   19
 -0.006172381716789377    3    3   20    2
 0.0005704661525706036    3    3   20    4
 -0.008120193276376574    3    3   20    9
 0.0005142689605312455    3    3   20   14
 0.00220725461778668    3    3   20   17
 0.1417265125205376    3    3   20   20
 -0.006648944308625204    3    3   21    1
 0.0006155754532641693    3    3   21    3
 -0.00135873495589108    3    3   21    6
 0.009332968713141385    3    3   21   11
 -0.00558554046847521    3    3   21   15
 -0.004006211411401537    3    3   21   19
 0.1460149077646098    3    3   21   21
 0.001401926890590333    3    3   22    5
 -0.008893190099215933    3    3   22    8
 -0.003521068723550006    3    3   22   12
 -0.005315236421973565    3    3   22   16
 0.1441274400810033    3    3   22   22
 -0.001081171091317073    3    3   23    7
 0.003147406844275173    3    3   23   10
 0.0002683161779432903    3    3   23   13
 0.004475195211569511    3    3   23   18
 0.1398547391381067    3    3   23   23
 -0.0002141072316098884    3    3   24    5
 0.006764970715462207    3    3   24    8
 0.007835497478321711    3    3   24   12
 0.0005133286239916568    3    3   24   16
 -0.00934889316058222    3    3   24   22
 0.1525324160005798    3    3   24   24
 0.005834853247279143    3    3   25    7
 0.0006710270096758332    3    3   25   10
 -0.006888763240555734    3    3   25   13
 -0.006219215777623899    3    3   25   18
 -0.003207530306937937    3    3   25   23
 0.145462547696075    3    3   25   25
 0.006370951742639454    3    3   26    5
 -0.0003746136211903425    3    3   26    8
 -0.0002401798282177541    3    3   26   12
 -0.01194638559992133    3    3   26   16
 0.006846149880899453    3    3   26   22
 -0.004185922760737796    3    3   26   24
 0.1500822229992457    3    3   26   26
 0.02185696229309894    4    1    2    1
 -0.008668994780793405    4    1    3    2
 0.02975179484702197    4    1    4    1
 -0.00127691335513088    4    1    4    3
 -0.01791590908958837    4    1    6    2
 -0.002581699272926022    4    1    6    4
 0.02062590657474233    4    1    7    5
 -0.007401918736742816    4    1    8    7
 -0.01285374703848069    4    1    9    1
 0.01541393283631166    4    1    9    3
 0.007747424534834674    4    1    9    6
 -0.02716758662711928    4    1   10    5
 0.00131482983621252    4    1   10    8
 0.0146304339384078    4    1   11    2
 0.02543098775874812    4    1   11    4
 -0.009897246572884762    4    1   11    9
 0.01685274309600889    4    1   12    7
 0.00235302500542546    4    1   12   10
 0.01038370102594169    4    1   13    5
 -0.02067391584052812    4    1   13    8
 -0.009444005543315032    4    1   13   12
 -3.933171411847949e-05    4    1   14    1
 -0.009773509569595103    4    1   14    3
 0.01632533991784069    4    1   14    6
 -0.004722798441690042    4    1   14   11
 0.0009397396657059916    4    1   15    2
 -0.005988009543443706    4    1   15    4
 0.01591431946304036    4    1   15    9
 -0.008466146286880791    4    1   15   14
 0.01199872819283661    4    1   16    7
 -0.01833779829286649    4    1   16   10
 0.004370378085346552    4    1   16   13
 0.002180308953213048    4    1   17    1
 0.0002662534808466878    4    1   17    3
 -0.006420519557655804    4    1   17    6
 0.01867083889307603    4    1   17   11
 0.003205124549398569    4    1   17   15
 0.004958749195661019    4    1   18    5
 0.003080650219272852    4    1   18    8
 0.01544780851997499    4    1   18   12
 0.008917072412798032    4    1   18   16
 0.001818873085348274    4    1   19    2
 -0.0002187421101729057    4    1   19    4
 0.003162617634066123    4    1   19    9
 -0.02044446030279303    4    1   19   14
 0.0005917400242130465    4    1   19   17
 -0.002200583485526483    4    1   20    1
 0.002125019359801876    4    1   20    3
 0.002747355345853503    4    1   20    6
 -0.01252187407645616    4    1   20   11
 0.01697740727563214    4    1   20   15
 -0.006018596708376279    4    1   20   19
 -0.002546059008353532    4    1   21    2
 -0.005321796577333443    4    1   21    4
 0.005164489930690204    4    1   21    9
 0.01056512576965332    4    1   21   14
 -0.02678246859157663    4    1   21   17
 0.02242027426867181    4    1   21   20
 -0.002717040455634506    4    1   22    7
 0.006779117350911044    4    1   22   10
 -0.01555532461187697    4    1   22   13
 -0.009688623618388934    4    1   22   18
 0.005185368409912631    4    1   23    5
 0.0001155917747874328    4    1   23    8
 0.006488049049119692    4    1   23   12
 0.02619965597012166    4    1   23   16
 -0.002832994820991811    4    1   23   22
 -0.002096725240681853    4    1   24    7
 -0.0002581680509616161    4    1   24   10
 0.009592056860864609    4    1   24   13
 -0.01467046607371652    4    1   24   18
 -0.0007269172275130605    4    1   24   23
 0.002614033036999155    4    1   25    5
 -0.002020696072006453    4    1   25    8
 -0.0005698129067929949    4    1   25   12
 0.01563733834988788    4    1   25   16
 -0.01863691846132725    4    1   25   22
 -0.007029235181000812    4    1   25   24
 0.002292749636439751    4    1   26    7
 -0.002713505044899748    4    1   26   10
 0.0002751740524608673    4    1   26   13
 0.01277331987063032    4    1   26   18
 0.02969998805421813    4    1   26   23
 0.02411874295596118    4    1   26   25
 0.03478180703745459    4    2    1    1
 0.007944731075858196    4    2    2    2
 -0.02600800422439332    4    2    3    1
 -0.002704619828508547    4    2    3    3
 0.03520610749926346    4    2    4    2
 0.007170068851646685    4    2    4    4
 0.03316083797666818    4    2    5    5
 -0.007168757339113622    4    2    6    1
 -0.0242258706418356    4    2    6    3
 0.0001462409076701359    4    2    6    6
 0.00823677640237238    4    2    7    7
 -0.02428780148564194    4    2    8    5
 -0.00129261145641003    4    2    8    8
 -0.005346922648147767    4    2    9    2
 -0.03023409206337337    4    2    9    4
 -0.002487661184285699    4    2    9    9
 -0.03250379588625785    4    2   10    7
 0.003411569255100352    4    2   10   10
 0.01164235094721079    4    2   11    1
 -0.0008781819375389715    4    2   11    3
 -0.03085357727085486    4    2   11    6
 0.02232749579699245    4    2   11   11
 0.006680833757731794    4    2   12    5
 0.02683508001574697    4    2   12    8
 0.00339171630635287    4    2   12   12
 -0.001416732508669079    4    2   13    7
 -0.02548789232930765    4    2   13   10
 0.02193079341651744    4    2   13   13
 -0.007535677840164105    4    2   14    2
 -0.0002502300568490346    4    2   14    4
 -0.01842998270568927    4    2   14    9
 0.02100879045483876    4    2   14   14
 0.0003533843499673617    4    2   15    1
 0.006593211835836078    4    2   15    3
 -0.005579908358135764    4    2   15    6
 -0.02084662394877095    4    2   15   11
 0.001559253229963252    4    2   15   15
 0.009623685169309485    4    2   16    5
 -0.0001214008091413834    4    2   16    8
 0.0202012991548094    4    2   16   12
 0.02078792379983656    4    2   16   16
 0.002406467366134524    4    2   17    2
 0.005559760258022944    4    2   17    4
 -0.008809281060640061    4    2   17    9
 -0.02661757478187489    4    2   17   14
 0.001988928417104586    4    2   17   17
 0.008301753642241805    4    2   18    7
 -0.008675087024638864    4    2   18   10
 -0.01775306310974574    4    2   18   13
 -0.005592573706773236    4    2   18   18
 0.001989614376894211    4    2   19    1
 0.002113356278613106    4    2   19    3
 -0.002485213342034797    4    2   19    6
 -0.0006533882287016562    4    2   19   11
 0.02774102162076933    4    2   19   15
 -0.001229274646738493    4    2   19   19
 6.149727596713696e-05    4    2   20    2
 -0.005436089724672517    4    2   20    4
 0.008563163867319675    4    2   20    9
 -0.0006178481676116099    4    2   20   14
 -0.03252255892537811    4    2   20   17
 0.0107599481624293    4    2   20   20
 -0.002862249251967321    4    2   21    1
 0.003235922381486407    4    2   21    3
 0.001170729623990616    4    2   21    6
 -0.009437601100518155    4    2   21   11
 0.005749156145209066    4    2   21   15
 -0.02332398714639402    4    2   21   19