 &FCI NORB=  34,NELEC=34,MS2=0,
  ORBSYM=1,1,1,1,1,1,1,1,1,1,1,1,1,1,1,1,1,1,1,1,1,1,1,1,1,1,1,1,1,1,1,1,1,1,
  ISYM=1,
 &END
 0.1605362005866527    1    1    1    1
 0.1291034462382392    1    1    2    2
 -0.03077319036979459    1    1    3    1
 0.1269760529224921    1    1    3    3
 0.03185947085149922    1    1    4    2
 0.1256928538700979    1    1    4    4
 -3.207007536119713e-05    1    1    5    1
 0.03251694091832415    1    1    5    3
 0.1247233127421654    1    1    5    5
 8.661600160959687e-05    1    1    6    2
 0.03299862490264628    1    1    6    4
 0.1236933423039612    1    1    6    6
 0.1565291028566579    1    1    7    7
 0.1267847582737592    1    1    8    8
 -0.0290124042818611    1    1    9    7
 0.1246230498815901    1    1    9    9
 -7.919263757518009e-05    1    1   10    1
 0.0002567283584965163    1    1   10    3
 0.03344008702681666    1    1   10    5
 0.1221442167650955    1    1   10   10
 -0.03008291379371553    1    1   11    8
 0.1233287677028526    1    1   11   11
 9.30274521863858e-05    1    1   12    2
 0.000616719071606994    1    1   12    4
 0.03397133877157012    1    1   12    6
 0.1188742562951773    1    1   12   12
 -0.0001100751986219784    1    1   13    7
 -0.03057918486054654    1    1   13    9
 0.1221768583009193    1    1   13   13
 2.732027285313635e-05    1    1   14    1
 3.883568255028472e-05    1    1   14    3
 0.001183629626231506    1    1   14    5
 0.03591591794323781    1    1   14   10
 0.1511091913707464    1    1   14   14
 -0.0001131570194014749    1    1   15    8
 -0.03077828949985915    1    1   15   11
 0.1211408825826338    1    1   15   15
 0.0001006414466544353    1    1   16    7
 -7.107110413386331e-05    1    1   16    9
 0.03057633485770987    1    1   16   13
 0.1216212085080271    1    1   16   16
 8.506597197659193e-05    1    1   17    8
 -0.0003974051421020217    1    1   17   11
 0.02917181838039738    1    1   17   15
 0.1448659183947771    1    1   17   17
 1.735621619496015e-05    1    1   18    2
 -0.0001561875651139892    1    1   18    4
 0.001560061705213271    1    1   18    6
 0.01644134911132673    1    1   18   12
 0.1456152711420954    1    1   18   18
 2.212365447689686e-05    1    1   19    1
 0.000147462771704762    1    1   19    3
 0.0001785924821678461    1    1   19    5
 -0.002188756269133645    1    1   19   10
 0.02207065724270878    1    1   19   14
 0.1220198307199883    1    1   19   19
 -0.0001293057983789786    1    1   20    2
 -0.001047937543287543    1    1   20    4
 -0.001155625621598515    1    1   20    6
 -0.009684387202730085    1    1   20   12
 0.03019411774390358    1    1   20   18
 0.1218711288506648    1    1   20   20
 8.634382902854857e-06    1    1   21    7
 -3.918844208328031e-05    1    1   21    9
 -0.001305612644677745    1    1   21   13
 -0.02147282860759427    1    1   21   16
 0.1497545311584076    1    1   21   21
 -9.945138448847149e-05    1    1   22    1
 0.001498496216630199    1    1   22    3
 0.002720561737036402    1    1   22    5
 0.006335945960400892    1    1   22   10
 0.001834170112654966    1    1   22   14
 0.03163294792650514    1    1   22   19
 0.1233092745753283    1    1   22   22
 -8.434582711316861e-06    1    1   23    8
 -0.0005962145034693775    1    1   23   11
 0.009433740468002659    1    1   23   15
 -0.01624373290708491    1    1   23   17
 0.1165633263218243    1    1   23   23
 0.001749189852079946    1    1   24    2
 0.00362671076695647    1    1   24    4
 0.004773678990656531    1    1   24    6
 0.001058217596400996    1    1   24   12
 -0.0007619843402910162    1    1   24   18
 -0.03170067146101502    1    1   24   20
 0.1249396042276344    1    1   24   24
 0.001912146532836747    1    1   25    1
 -0.004223948611457165    1    1   25    3
 -0.003929783304389054    1    1   25    5
 -0.0006280582871813653    1    1   25   10
 0.000169276011891839    1    1   25   14
 -0.0005807651603148401    1    1   25   19
 -0.0312186439821103    1    1   25   22
 0.1271822473825931    1    1   25   25
 1.301103624373678e-05    1    1   26    7
 0.0002652088919540158    1    1   26    9
 -0.006019407165886378    1    1   26   13
 0.001939455331445234    1    1   26   16
 0.03733396096004603    1    1   26   21
 0.1215876442443764    1    1   26   26
 -0.004715968631484259    1    1   27    2
 -0.003437763634218308    1    1   27    4
 -0.0004094226135387934    1    1   27    6
 0.0001290407770079353    1    1   27   12
 -8.265890462884673e-05    1    1   27   18
 0.0005234609547720947    1    1   27   20
 -0.0302087696089061    1    1   27   24
 0.1315902209721872    1    1   27   27
 -0.00747105825233042    1    1   28    1
 0.003117134195243332    1    1   28    3
 0.0002552446358950636    1    1   28    5
 -7.093310195504194e-05    1    1   28   10
 3.231320340103481e-05    1    1   28   14
 -0.000100661924961062    1    1   28   19
 0.0004987264623681947    1    1   28   22
 -0.02823223703359781    1    1   28   25
 0.1616382022146242    1    1   28   28
 0.000157215130315047    1    1   29    8
 -0.004391016717707001    1    1   29   11
 0.001190394671764959    1    1   29   15
 -0.002154408609814473    1    1   29   17
 0.03469233149239703    1    1   29   23
 0.124256829657502    1    1   29   29
 -0.0001065035576605735    1    1   30    7
 0.003502087728410555    1    1   30    9
 -0.002645670881442682    1    1   30   13
 0.0001493173342014797    1    1   30   16
 0.001581430716817331    1    1   30   21
 0.03400847408690576    1    1   30   26
 0.1262477553452318    1    1   30   30
 0.002985558726428844    1    1   31    8
 -0.003507391616498948    1    1   31   11
 0.0009647547855957743    1    1   31   15
 0.0003062372349840441    1    1   31   17
 0.0009234130454906331    1    1   31   23
 0.03341117666564034    1    1   31   29
 0.1280715302410626    1    1   31   31
 -0.00268159869952476    1    1   32    7
 0.004077531633950605    1    1   32    9
 -0.001598590093457291    1    1   32   13
 -0.0002898488873015693    1    1   32   16
 -7.511402898877954e-05    1    1   32   21
 0.0005284983681800135    1    1   32   26
 0.03274512970612584    1    1   32   30
 0.1302437988294438    1    1   32   32
 0.004520385566734961    1    1   33    8
 -0.00199897844568036    1    1   33   11
 0.0002178180092169499    1    1   33   15
 -7.664120856495292e-05    1    1   33   17
 -9.284315393098195e-05    1    1   33   23
 0.0003945274655429088    1    1   33   29
 0.03179198431202082    1    1   33   31
 0.1339335331158797    1    1   33   33
 0.007257769204120483    1    1   34    7
 -0.002258623528492992    1    1   34    9
 0.0001417207874266808    1    1   34   13
 -5.069686830028332e-05    1    1   34   16
 -4.113568039105751e-05    1    1   34   21
 0.0001208482820874863    1    1   34   26
 -0.0003497296113778009    1    1   34   30
 -0.03017023413067652    1    1   34   32
 0.1656082965918864    1    1   34   34
 0.05668326044189671    2    1    2    1
 0.03623072600265143    2    1    3    2
 0.02107127852035184    2    1    4    1
 -0.03533346375448184    2    1    4    3
 0.02159802629049901    2    1    5    2
 0.03470421729491258    2    1    5    4
 0.0005197239775839818    2    1    6    1
 -0.02204723697621881    2    1    6    3
 -0.03413713493172608    2    1    6    5
 0.05418591735193908    2    1    8    7
 0.03531089134534728    2    1    9    8
 0.0007903379763656884    2    1   10    2
 0.02244296436667975    2    1   10    4
 0.03333003586958049    2    1   10    6
 -0.01945035942847114    2    1   11    7
 0.03431033819312571    2    1   11    9
 -7.164836233536599e-05    2    1   12    1
 -0.001136605125009251    2    1   12    3
 -0.02293667519969139    2    1   12    5
 -0.0305650342729476    2    1   12   10
 -0.01993401154383267    2    1   13    8
 0.03366418255814839    2    1   13   11
 -0.0001022248221645022    2    1   14    2
 0.001545749228913217    2    1   14    4
 0.02514278194081359    2    1   14    6
 0.05084970495508535    2    1   14   12
 0.0003370974561937433    2    1   15    7
 -0.02019989695238947    2    1   15    9
 0.03314973318937053    2    1   15   13
 -0.0005212246895596179    2    1   16    8
 0.02022014563126074    2    1   16   11
 -0.0332009191012987    2    1   16   15
 -2.816253158155123e-05    2    1   17    7
 -0.0007150156810440506    2    1   17    9
 0.01966394712983091    2    1   17   13
 0.04502449700668766    2    1   17   16
 2.861687120445161e-05    2    1   18    1
 0.0002033918488419205    2    1   18    3
 -0.001593803507671048    2    1   18    5
 -0.01585070200262739    2    1   18   10
 -0.02300486811951402    2    1   18   14
 0.0001888426199883878    2    1   19    2
 1.117267841147876e-05    2    1   19    4
 -0.003254397781560139    2    1   19    6
 0.006573484985730535    2    1   19   12
 0.04552847896686481    2    1   19   18
 -0.0001288682667921071    2    1   20    1
 0.0008321779273544485    2    1   20    3
 -0.0006570244001514771    2    1   20    5
 -0.001346664927495913    2    1   20   10
 -0.0183509764155275    2    1   20   14
 -0.03329081913278242    2    1   20   19
 -0.0001168463951359366    2    1   21    8
 -0.00150333656946669    2    1   21   11
 0.01761551434395852    2    1   21   15
 0.02194566032435438    2    1   21   17
 0.001279076976605027    2    1   22    2
 0.0006034260131056972    2    1   22    4
 -0.0018681719398495    2    1   22    6
 -0.007654129128498484    2    1   22   12
 0.02051050852823353    2    1   22   18
 0.03349244948925062    2    1   22   20
 -7.037293634571878e-05    2    1   23    7
 -0.0007994526188090267    2    1   23    9
 0.00736874830531191    2    1   23   13
 -0.006686823577724498    2    1   23   16
 0.05104089804622215    2    1   23   21
 0.001574813570512788    2    1   24    1
 -0.0013730347846093    2    1   24    3
 0.002001914198307775    2    1   24    5
 0.005134539808332299    2    1   24   10
 0.001983570491709336    2    1   24   14
 0.02094847422842299    2    1   24   19
 0.03439817856391092    2    1   24   22
 -0.001903592705896564    2    1   25    2
 0.002098516240830981    2    1   25    4
 0.003963185213965319    2    1   25    6
 0.001200768866518173    2    1   25   12
 -0.001065153295883086    2    1   25   18
 -0.02075321843839994    2    1   25   20
 0.0356816092970594    2    1   25   24
 0.0004117622816855646    2    1   26    8
 -0.004825053707591405    2    1   26   11
 0.001398818659717085    2    1   26   15
 0.01590219743638554    2    1   26   17
 -0.02925470446945354    2    1   26   23
 -0.004137497996301805    2    1   27    1
 -0.002236667309265765    2    1   27    3
 -0.003315949063243655    2    1   27    5
 -0.0007015254099510494    2    1   27   10
 0.0001971604698941668    2    1   27   14
 -0.0009878441620789938    2    1   27   19
 -0.02023225903843969    2    1   27   22
 0.03786056316488344    2    1   27   25
 -0.004537055275811203    2    1   28    2
 -0.002936887013028348    2    1   28    4
 -0.0003864070263030416    2    1   28    6
 0.0001270295195865279    2    1   28   12
 -0.0001201212854610284    2    1   28   18
 0.0007449387582554895    2    1   28   20
 -0.01927375165015459    2    1   28   24
 0.05544411849804245    2    1   28   27
 0.0002114364357363475    2    1   29    7
 -0.003609671470750558    2    1   29    9
 0.001894799742140375    2    1   29   13
 0.002961742928612151    2    1   29   16
 0.02650905862574912    2    1   29   21
 0.03324932177596567    2    1   29   26
 0.00294263661520116    2    1   30    8
 -0.00204667926464002    2    1   30   11
 0.0005655396449777423    2    1   30   15
 0.001927680921838158    2    1   30   17
 -0.02348421342078795    2    1   30   23
 -0.03462885558002094    2    1   30   29
 0.002587451891417522    2    1   31    7
 -0.002178085570225846    2    1   31    9
 -0.0005506243735251305    2    1   31   13
 8.57182216530241e-05    2    1   31   16
 0.001931043531773443    2    1   31   21
 0.02278508723815032    2    1   31   26
 0.0357214757449688    2    1   31   30
 0.002305192070694138    2    1   32    8
 0.001208501184351909    2    1   32   11
 -0.0009090897626525969    2    1   32   15
 -0.0002891493613456444    2    1   32   17
 -0.001423764972556651    2    1   32   23
 -0.02216157662642097    2    1   32   29
 -0.03697066720875956    2    1   32   31
 0.004529665892754596    2    1   33    7
 0.001664826626004331    2    1   33    9
 -0.001490825869362825    2    1   33   13
 -0.0002773477677864488    2    1   33   16
 -0.0002198905655087479    2    1   33   21
 0.001018278194752333    2    1   33   26
 0.02151090499250308    2    1   33   30
 0.03879311678091958    2    1   33   32
 0.004067202406243531    2    1   34    8
 -0.001856622763383575    2    1   34   11
 0.0001823627829556302    2    1   34   15
 -3.85513058138301e-05    2    1   34   17
 -0.0001682680557726628    2    1   34   23
 0.0006499692901411399    2    1   34   29
 0.02071343655612424    2    1   34   31
 0.05838602218343505    2    1   34   33
 0.1291034462382391    2    2    1    1
 0.1397539813688463    2    2    2    2
 0.01034744121520853    2    2    3    1
 0.1234194923563796    2    2    3    3
 0.006271974650218215    2    2    4    2
 0.1222163130309188    2    2    4    4
 0.01629383600966935    2    2    5    1
 0.007531842032389804    2    2    5    3
 0.1213469390626584    2    2    5    5
 -0.01654524635068618    2    2    6    2
 0.008590948907185616    2    2    6    4
 0.1204299615130339    2    2    6    6
 0.1259880007651349    2    2    7    7
 0.1360606127846601    2    2    8    8
 0.009831376462186986    2    2    9    7
 0.1210464920988551    2    2    9    9
 0.0006554138461885515    2    2   10    1
 -0.01675645707160769    2    2   10    3
 0.009840503117291849    2    2   10    5
 0.1174766433605107    2    2   10   10
 -0.005351243938159769    2    2   11    8
 0.1197090359061315    2    2   11   11
 -0.00105082178550712    2    2   12    2
 -0.0168800795571451    2    2   12    4
 0.01320072975306282    2    2   12    6
 0.1298118441964917    2    2   12   12
 -0.01481965022432301    2    2   13    7
 -0.006566612943267121    2    2   13    9
 0.1187605234836903    2    2   13   13
 -8.909370203147502e-05    2    2   14    1
 -0.001462896290075831    2    2   14    3
 -0.01844492285106133    2    2   14    5
 0.0004018708376799968    2    2   14   10
 0.1318377520009275    2    2   14   14
 -0.01506309842313673    2    2   15    8
 -0.007353421353704319    2    2   15   11
 0.1182573939034656    2    2   15   15
 -0.000411482343701094    2    2   16    7
 0.01500422398025872    2    2   16    9
 0.007550770811961851    2    2   16   13
 0.125584158964171    2    2   16   16
 -0.0006130876528307658    2    2   17    8
 0.01445904781459556    2    2   17   11
 -0.001459988315454516    2    2   17   15
 0.1236822459179954    2    2   17   17
 0.0002124131459648469    2    2   18    2
 -0.001530174243782176    2    2   18    4
 -0.01212131618820764    2    2   18    6
 -0.002785238788976207    2    2   18   12
 0.125047171980865    2    2   18   18
 0.0001701756568926743    2    2   19    1
 9.063078480360271e-05    2    2   19    3
 0.002877228578993065    2    2   19    5
 -0.009599515283109549    2    2   19   10
 0.0006672945931423069    2    2   19   14
 0.126754735514335    2    2   19   19
 0.0006815827013940766    2    2   20    2
 -0.001564186658068622    2    2   20    4
 -0.001089145158053637    2    2   20    6
 -0.0142920722318355    2    2   20   12
 -0.0006676850965087705    2    2   20   18
 0.1193396133836507    2    2   20   20
 -9.815117963881724e-05    2    2   21    7
 -0.001433586447889328    2    2   21    9
 0.01370192917923505    2    2   21   13
 -0.0007825195625183588    2    2   21   16
 0.1316755968733675    2    2   21   21
 0.001165977316740607    2    2   22    1
 0.0009181936721514412    2    2   22    3
 0.002888830660772054    2    2   22    5
 0.004156728122999777    2    2   22   10
 -0.01389442359582592    2    2   22   14
 0.008637833345632808    2    2   22   19
 0.1204582848564097    2    2   22   22
 -0.0007585113983473202    2    2   23    8
 0.005627749314621172    2    2   23   11
 0.01394950566755099    2    2   23   15
 0.002001412664190044    2    2   23   17
 0.1291771712873639    2    2   23   23
 0.0005038404388522335    2    2   24    2
 0.003815142919313482    2    2   24    4
 0.002476353934610685    2    2   24    6
 -0.005466268575565912    2    2   24   12
 0.01476580058076488    2    2   24   18
 -0.007980199011637049    2    2   24   20
 0.1222550074661238    2    2   24   24
 -0.001392783860629092    2    2   25    1
 -0.004432148508991041    2    2   25    3
 -0.001688817290818092    2    2   25    5
 0.003837115936191641    2    2   25   10
 0.00196849488567909    2    2   25   14
 0.01507462460412725    2    2   25   19
 -0.006497749403765021    2    2   25   22
 0.1249555892012941    2    2   25   25
 0.0003554352836286613    2    2   26    7
 -0.003875071755311126    2    2   26    9
 -0.003755080521613794    2    2   26   13
 0.009828915705551583    2    2   26   16
 0.001407983196693436    2    2   26   21
 0.1164881037428453    2    2   26   26
 -0.00663242761359743    2    2   27    2
 -0.001171061814576305    2    2   27    4
 0.003099110607166993    2    2   27    6
 0.001193197409753196    2    2   27   12
 -0.001046536912861203    2    2   27   18
 -0.01489040913482114    2    2   27   20
 -0.004074974702951692    2    2   27   24
 0.1395273451875887    2    2   27   27
 -0.005259195687420843    2    2   28    1
 -0.001275383980098877    2    2   28    3
 -0.002741015226906392    2    2   28    5
 -0.000614591437504919    2    2   28   10
 0.0001736966900693563    2    2   28   14
 -0.0008666728678559735    2    2   28   19
 -0.01436086879191757    2    2   28   22
 0.01096907371999829    2    2   28   25
 0.1278779780999853    2    2   28   28
 -0.003006175036922817    2    2   29    8
 -0.002045740226034299    2    2   29   11
 0.001076087595177122    2    2   29   15
 0.01158839547007053    2    2   29   17
 0.01500288067073035    2    2   29   23
 0.1212194928731296    2    2   29   29
 0.002565033063403558    2    2   30    7
 0.001225846398297826    2    2   30    9
 -0.002749847196938593    2    2   30   13
 -0.002254782512466238    2    2   30   16
 -0.01932528834382577    2    2   30   21
 0.01029325081346492    2    2   30   26
 0.1231499118401886    2    2   30   30
 0.0007300894710597612    2    2   31    8
 -0.003614416676111591    2    2   31   11
 0.00133357706543926    2    2   31   15
 0.001761087305357675    2    2   31   17
 -0.01697985047826674    2    2   31   23
 0.008392571925598419    2    2   31   29
 0.1250679353322262    2    2   31   31
 0.00161488007833188    2    2   32    7
 0.004195028328854811    2    2   32    9
 -0.0009651509342093875    2    2   32   13
 -0.0001222708147372635    2    2   32   16
 -0.001881256599979313    2    2   32   21
 -0.01666575235610112    2    2   32   26
 0.006665704939699551    2    2   32   30
 0.1274895968021058    2    2   32   32
 0.006473013946212181    2    2   33    8
 -0.0007502986530645978    2    2   33   11
 -0.0007959465634038914    2    2   33   15
 -0.0003257306174791535    2    2   33   17
 -0.001407798397984693    2    2   33   23
 -0.01627065888747956    2    2   33   29
 0.004493614613617155    2    2   33   31
 0.1435172926253843    2    2   33   33
 0.005070810484645158    2    2   34    7
 0.001242596714137431    2    2   34    9
 -0.001382772800735043    2    2   34   13
 -0.0002431238998987226    2    2   34   16
 -0.0001950620926221626    2    2   34   21
 0.0008846728276132648    2    2   34   26
 0.01573003028168056    2    2   34   30
 0.01182657795227528    2    2   34   32
 0.1312623042962756    2    2   34   34
 -0.03077319036979461    3    1    1    1
 0.01034744121520853    3    1    2    2
 0.04018110308456858    3    1    3    1
 -0.003500192955439642    3    1    3    3
 -0.02503887272387503    3    1    4    2
 -0.003435123230526864    3    1    4    4
 0.01591957676274101    3    1    5    1
 -0.02443895349813629    3    1    5    3
 -0.003339811416174164    3    1    5    5
 -0.01623377177956402    3    1    6    2
 -0.02387556499519928    3    1    6    4
 -0.003233695578510936    3    1    6    6
 -0.02985744130434016    3    1    7    7
 0.009029336052782798    3    1    8    8
 0.03793574269950484    3    1    9    7
 -0.003493365926211712    3    1    9    9
 0.0007022719861210511    3    1   10    1
 -0.01660964981252641    3    1   10    3
 -0.02308702010083171    3    1   10    5
 -0.004598928254445853    3    1   10   10
 0.02418141901471218    3    1   11    8
 -0.003544930416089948    3    1   11   11
 -0.001100747117939413    3    1   12    2
 -0.01708727190608615    3    1   12    4
 -0.02033854910122632    3    1   12    6
 0.01064720982431571    3    1   12   12
 -0.01433867534311312    3    1   13    7
 0.02346744223874387    3    1   13    9
 -0.003344705480260501    3    1   13   13
 -0.0001140339442891883    3    1   14    1
 -0.001448852427496565    3    1   14    3
 -0.01916232576678908    3    1   14    5
 -0.03475286066564501    3    1   14   10
 -0.01894585655761962    3    1   14   14
 -0.01458599579819649    3    1   15    8
 0.02289163538733618    3    1   15   11
 -0.002816859899147464    3    1   15   15
 -0.0004873228666217988    3    1   16    7
 0.0147096303608037    3    1   16    9
 -0.02250373459263153    3    1   16   13
 0.003862301875032417    3    1   16   16
 -0.0006689081862800676    3    1   17    8
 0.01448980239718034    3    1   17   11
 -0.0299129713882162    3    1   17   15
 -0.0206709198232522    3    1   17   17
 0.0001909340887526511    3    1   18    2
 -0.001321491618644959    3    1   18    4
 -0.01331987311369618    3    1   18    6
 -0.01874822702760605    3    1   18   12
 -0.02007247870596523    3    1   18   18
 0.0001438790624991275    3    1   19    1
 -6.654775332232416e-05    3    1   19    3
 0.002613561392554332    3    1   19    5
 -0.007263532427761037    3    1   19   10
 -0.02094579178728814    3    1   19   14
 0.004611642796179029    3    1   19   19
 0.0008003199819240065    3    1   20    2
 -0.0004721211456321031    3    1   20    4
 0.000120696395037524    3    1   20    6
 -0.004448111894885419    3    1   20   12
 -0.03014234321069144    3    1   20   18
 -0.002479557540778734    3    1   20   20
 -0.0001046507036515871    3    1   21    7
 -0.001347004230321748    3    1   21    9
 0.01464991523350969    3    1   21   13
 0.02024218089614165    3    1   21   16
 -0.01777253631341423    3    1   21   21
 0.00124111799602248    3    1   22    1
 -0.0006011502580934735    3    1   22    3
 0.0001136002869625861    3    1   22    5
 -0.002157520314968244    3    1   22   10
 -0.01535794240160136    3    1   22   14
 -0.0224803792743966    3    1   22   19
 -0.002800802115574624    3    1   22   22
 -0.0007252940070663166    3    1   23    8
 0.00609305952943753    3    1   23   11
 0.004363834271049662    3    1   23   15
 0.01779255492267069    3    1   23   17
 0.01228881266335008    3    1   23   23
 -0.001253189042845247    3    1   24    2
 0.0001323454033911654    3    1   24    4
 -0.002281560618951545    3    1   24    6
 -0.006390046950036913    3    1   24   12
 0.01514771384778929    3    1   24   18
 0.02318765268796988    3    1   24   20
 -0.002640864075767628    3    1   24   24
 -0.003267259210944197    3    1   25    1
 -0.0001520115256360239    3    1   25    3
 0.002228171596579271    3    1   25    5
 0.00437090276734329    3    1   25   10
 0.001742316563897888    3    1   25   14
 0.01527904354726711    3    1   25   19
 0.02416759195947113    3    1   25   22
 -0.002187581412774635    3    1   25   25
 0.0003297137381951149    3    1   26    7
 -0.004050378427650683    3    1   26    9
 0.00223468641837014    3    1   26   13
 0.007727074571425185    3    1   26   16
 -0.03515604948715746    3    1   26   21
 -0.005019685870478147    3    1   26   26
 -0.00181955902244481    3    1   27    2
 0.002256237719445997    3    1   27    4
 0.003434732189845633    3    1   27    6
 0.001032302680554469    3    1   27   12
 -0.0009280478482151431    3    1   27   18
 -0.0150415155999944    3    1   27   20
 0.02555762698594859    3    1   27   24
 0.007708714326621268    3    1   27   27
 0.002256585929237017    3    1   28    1
 -0.004334588913040939    3    1   28    3
 -0.002930626048848708    3    1   28    5
 -0.0005263431764004509    3    1   28   10
 0.0001388698023415686    3    1   28   14
 -0.0007351354308400666    3    1   28   19
 -0.0144881350281482    3    1   28   22
 0.03829295294800229    3    1   28   25
 -0.03302360606859159    3    1   28   28
 -0.003094737930679691    3    1   29    8
 0.002322597039624892    3    1   29   11
 -0.0001633705734044718    3    1   29   15
 0.01338260204758396    3    1   29   17
 -0.01928450852602257    3    1   29   23
 -0.003015903544750508    3    1   29   29
 0.00261103398895207    3    1   30    7
 -0.002256719337446687    3    1   30    9
 -5.524326028677367e-05    3    1   30   13
 -0.002328172711073734    3    1   30   16
 -0.02041168059277271    3    1   30   21
 -0.02320184404926552    3    1   30   26
 -0.00307231965510871    3    1   30   30
 -0.002239191025339959    3    1   31    8
 -5.66773496396183e-05    3    1   31   11
 0.0003293936826411049    3    1   31   15
 0.001400919870925186    3    1   31   17
 -0.01748676590226607    3    1   31   23
 -0.02447675604907292    3    1   31   29
 -0.00298021531124426    3    1   31   31
 0.004233679051205556    3    1   32    7
 6.715206288188202e-05    3    1   32    9
 0.0006524101166806122    3    1   32   13
 0.0001741559627749557    3    1   32   16
 -0.001745074829640723    3    1   32   21
 -0.01678787974480298    3    1   32   26
 -0.0255139848444286    3    1   32   30
 -0.002727978363470404    3    1   32   32
 0.001858168604253759    3    1   33    8
 0.001256803170289853    3    1   33   11
 -0.0009981291337213393    3    1   33   15
 -0.0002436525096787239    3    1   33   17
 -0.001267634660182212    3    1   33   23
 -0.01626721650801129    3    1   33   29
 -0.02671551312603219    3    1   33   31
 0.009291692784280318    3    1   33   33
 -0.002225685119015379    3    1   34    7
 0.003459417362345182    3    1   34    9
 -0.001493641600697089    3    1   34   13
 -0.0001870480580471652    3    1   34   16
 -0.0001507903953942459    3    1   34   21
 0.0007310383615931782    3    1   34   26
 0.01568103903807778    3    1   34   30
 0.04104388710845081    3    1   34   32
 -0.03364227572151028    3    1   34   34
 0.03623072600265139    3    2    2    1
 0.04712601551258903    3    2    3    2
 -0.009642404517997355    3    2    4    1
 -0.03508004431559201    3    2    4    3
 0.003319416653237714    3    2    5    2
 0.03454535954396754    3    2    5    4
 -0.01267669958301489    3    2    6    1
 -0.004315220566863551    3    2    6    3
 -0.03400475991605006    3    2    6    5
 0.03451229063125833    3    2    8    7
 0.04489453714184446    3    2    9    8
 -0.01261946386020894    3    2   10    2
 0.005488888951613939    3    2   10    4
 0.03170981247249906    3    2   10    6
 0.009198809494256171    3    2   11    7
 0.03399430658956339    3    2   11    9
 -0.0009261376321548953    3    2   12    1
 0.0127072509303805    3    2   12    3
 -0.00859819660652973    3    2   12    5
 -0.04063082923493978    3    2   12   10
 -0.002396010799754995    3    2   13    8
 0.03338935756481116    3    2   13   11
 -0.001366692617634412    3    2   14    2
 -0.01419299811371518    3    2   14    4
 -0.0005229433715115161    3    2   14    6
 0.04151117289052022    3    2   14   12
 -0.01123131204414228    3    2   15    7
 -0.003317087331521058    3    2   15    9
 0.03313328545158026    3    2   15   13
 0.01113124486067814    3    2   16    8
 0.003859870343430454    3    2   16   11
 -0.03775663229928876    3    2   16   15
 -0.0005428201132611866    3    2   17    7
 0.01082286555168288    3    2   17    9
 -0.002042362593268904    3    2   17   13
 0.03474105194049096    3    2   17   16
 0.0001740762548214543    3    2   18    1
 0.001252071190731312    3    2   18    3
 0.009701896806429813    3    2   18    5
 -0.0001220221333467282    3    2   18   10
 -0.01910286291305292    3    2   18   14
 -1.135994839371428e-05    3    2   19    2
 0.002144403938071002    3    2   19    4
 -0.009634304199621156    3    2   19    6
 -0.008908656485268498    3    2   19   12
 0.03589347810762716    3    2   19   18
 0.0007684812710307419    3    2   20    1
 0.001187968965011473    3    2   20    3
 -0.0005393948034502494    3    2   20    5
 0.005321317364600631    3    2   20   10
 -0.0006744580965055587    3    2   20   14
 -0.03849807267749358    3    2   20   19
 -0.001271550228864946    3    2   21    8
 0.0111008182240168    3    2   21   11
 0.0003773848309817359    3    2   21   15
 0.01833116160056378    3    2   21   17
 0.0007311444460421127    3    2   22    2
 0.0008665872501316238    3    2   22    4
 -0.001913996971994473    3    2   22    6
 -0.01147248771076483    3    2   22   12
 -0.001156846717723908    3    2   22   18
 0.03388209829087144    3    2   22   20
 -0.0006234318172902614    3    2   23    7
 0.004509248090999176    3    2   23    9
 0.01103751353962    3    2   23   13
 0.008256522820786283    3    2   23   16
 0.04257229549123492    3    2   23   21
 -0.0009402323301172699    3    2   24    1
 -0.00160260440777804    3    2   24    3
 0.002249376855396272    3    2   24    5
 0.003049270798287591    3    2   24   10
 -0.01119415879820528    3    2   24   14
 0.004776936021850397    3    2   24   19
 0.03477018712277308    3    2   24   22
 -0.003558331274815581    3    2   25    2
 0.00237460418490749    3    2   25    4
 0.001794591113087498    3    2   25    6
 -0.004353629035168482    3    2   25   12
 0.01096890528093829    3    2   25   18