[Molden Format]
made by pyscf v[2.0.1]
[Atoms] (AU)
C   1   6     2.65527474609200     6.99295716670100     0.00000000000000
C   2   6     1.36293650781400     4.60945461241000     0.00000000000000
C   3   6     2.64522049959100     2.32844339311600     0.00000000000000
C   4   6     1.36109054637300     0.00000000000000     0.00000000000000
C   5   6     1.35254544726900     9.20289291228100     0.00000000000000
H   6   1     4.70827624184100     6.98515115669500     0.00000000000000
H   7   1     4.69969836234300     2.32764294256900     0.00000000000000
H   8   1     2.35440258195100    10.99292763427100     0.00000000000000
C   9   6     2.65527474609200    -6.99295716670100     0.00000000000000
C   10   6     1.36293650781400    -4.60945461241000     0.00000000000000
C   11   6     2.64522049959100    -2.32844339311600     0.00000000000000
C   12   6     1.35254544726900    -9.20289291228100     0.00000000000000
H   13   1     4.70827624184100    -6.98515115669500     0.00000000000000
H   14   1     4.69969836234300    -2.32764294256900     0.00000000000000
H   15   1     2.35440258195100   -10.99292763427100     0.00000000000000
C   16   6    -2.65527474609200     6.99295716670100     0.00000000000000
C   17   6    -1.36293650781400     4.60945461241000     0.00000000000000
C   18   6    -2.64522049959100     2.32844339311600     0.00000000000000
C   19   6    -1.36109054637300     0.00000000000000     0.00000000000000
C   20   6    -1.35254544726900     9.20289291228100     0.00000000000000
H   21   1    -4.70827624184100     6.98515115669500     0.00000000000000
H   22   1    -4.69969836234300     2.32764294256900     0.00000000000000
H   23   1    -2.35440258195100    10.99292763427100     0.00000000000000
C   24   6    -2.65527474609200    -6.99295716670100     0.00000000000000
C   25   6    -1.36293650781400    -4.60945461241000     0.00000000000000
C   26   6    -2.64522049959100    -2.32844339311600     0.00000000000000
C   27   6    -1.35254544726900    -9.20289291228100     0.00000000000000
H   28   1    -4.70827624184100    -6.98515115669500     0.00000000000000
H   29   1    -4.69969836234300    -2.32764294256900     0.00000000000000
H   30   1    -2.35440258195100   -10.99292763427100     0.00000000000000
[GTO]
1 0
 s    6 1.00
             3047.5249  0.0018347001629433
             457.36951    0.01403730124668
             103.94869   0.068842606114048
             29.210155    0.23218442062076
              9.286663    0.46794134155879
              3.163927    0.36231203217765
 s    3 1.00
             7.8682724   -0.11933240861517
             1.8812885   -0.16085421161283
             0.5442493     1.1434564825515
 s    1 1.00
             0.1687144                   1
 p    3 1.00
             7.8682724   0.068999095584993
             1.8812885    0.31642397975315
             0.5442493    0.74430825237435
 p    1 1.00
             0.1687144                   1

2 0
 s    6 1.00
             3047.5249  0.0018347001629433
             457.36951    0.01403730124668
             103.94869   0.068842606114048
             29.210155    0.23218442062076
              9.286663    0.46794134155879
              3.163927    0.36231203217765
 s    3 1.00
             7.8682724   -0.11933240861517
             1.8812885   -0.16085421161283
             0.5442493     1.1434564825515
 s    1 1.00
             0.1687144                   1
 p    3 1.00
             7.8682724   0.068999095584993
             1.8812885    0.31642397975315
             0.5442493    0.74430825237435
 p    1 1.00
             0.1687144                   1

3 0
 s    6 1.00
             3047.5249  0.0018347001629433
             457.36951    0.01403730124668
             103.94869   0.068842606114048
             29.210155    0.23218442062076
              9.286663    0.46794134155879
              3.163927    0.36231203217765
 s    3 1.00
             7.8682724   -0.11933240861517
             1.8812885   -0.16085421161283
             0.5442493     1.1434564825515
 s    1 1.00
             0.1687144                   1
 p    3 1.00
             7.8682724   0.068999095584993
             1.8812885    0.31642397975315
             0.5442493    0.74430825237435
 p    1 1.00
             0.1687144                   1

4 0
 s    6 1.00
             3047.5249  0.0018347001629433
             457.36951    0.01403730124668
             103.94869   0.068842606114048
             29.210155    0.23218442062076
              9.286663    0.46794134155879
              3.163927    0.36231203217765
 s    3 1.00
             7.8682724   -0.11933240861517
             1.8812885   -0.16085421161283
             0.5442493     1.1434564825515
 s    1 1.00
             0.1687144                   1
 p    3 1.00
             7.8682724   0.068999095584993
             1.8812885    0.31642397975315
             0.5442493    0.74430825237435
 p    1 1.00
             0.1687144                   1

5 0
 s    6 1.00
             3047.5249  0.0018347001629433
             457.36951    0.01403730124668
             103.94869   0.068842606114048
             29.210155    0.23218442062076
              9.286663    0.46794134155879
              3.163927    0.36231203217765
 s    3 1.00
             7.8682724   -0.11933240861517
             1.8812885   -0.16085421161283
             0.5442493     1.1434564825515
 s    1 1.00
             0.1687144                   1
 p    3 1.00
             7.8682724   0.068999095584993
             1.8812885    0.31642397975315
             0.5442493    0.74430825237435
 p    1 1.00
             0.1687144                   1

6 0
 s    3 1.00
             18.731137    0.03349459952309
             2.8253937    0.23472694665786
             0.6401217    0.81375731841339
 s    1 1.00
             0.1612778                   1

7 0
 s    3 1.00
             18.731137    0.03349459952309
             2.8253937    0.23472694665786
             0.6401217    0.81375731841339
 s    1 1.00
             0.1612778                   1

8 0
 s    3 1.00
             18.731137    0.03349459952309
             2.8253937    0.23472694665786
             0.6401217    0.81375731841339
 s    1 1.00
             0.1612778                   1

9 0
 s    6 1.00
             3047.5249  0.0018347001629433
             457.36951    0.01403730124668
             103.94869   0.068842606114048
             29.210155    0.23218442062076
              9.286663    0.46794134155879
              3.163927    0.36231203217765
 s    3 1.00
             7.8682724   -0.11933240861517
             1.8812885   -0.16085421161283
             0.5442493     1.1434564825515
 s    1 1.00
             0.1687144                   1
 p    3 1.00
             7.8682724   0.068999095584993
             1.8812885    0.31642397975315
             0.5442493    0.74430825237435
 p    1 1.00
             0.1687144                   1

10 0
 s    6 1.00
             3047.5249  0.0018347001629433
             457.36951    0.01403730124668
             103.94869   0.068842606114048
             29.210155    0.23218442062076
              9.286663    0.46794134155879
              3.163927    0.36231203217765
 s    3 1.00
             7.8682724   -0.11933240861517
             1.8812885   -0.16085421161283
             0.5442493     1.1434564825515
 s    1 1.00
             0.1687144                   1
 p    3 1.00
             7.8682724   0.068999095584993
             1.8812885    0.31642397975315
             0.5442493    0.74430825237435
 p    1 1.00
             0.1687144                   1

11 0
 s    6 1.00
             3047.5249  0.0018347001629433
             457.36951    0.01403730124668
             103.94869   0.068842606114048
             29.210155    0.23218442062076
              9.286663    0.46794134155879
              3.163927    0.36231203217765
 s    3 1.00
             7.8682724   -0.11933240861517
             1.8812885   -0.16085421161283
             0.5442493     1.1434564825515
 s    1 1.00
             0.1687144                   1
 p    3 1.00
             7.8682724   0.068999095584993
             1.8812885    0.31642397975315
             0.5442493    0.74430825237435
 p    1 1.00
             0.1687144                   1

12 0
 s    6 1.00
             3047.5249  0.0018347001629433
             457.36951    0.01403730124668
             103.94869   0.068842606114048
             29.210155    0.23218442062076
              9.286663    0.46794134155879
              3.163927    0.36231203217765
 s    3 1.00
             7.8682724   -0.11933240861517
             1.8812885   -0.16085421161283
             0.5442493     1.1434564825515
 s    1 1.00
             0.1687144                   1
 p    3 1.00
             7.8682724   0.068999095584993
             1.8812885    0.31642397975315
             0.5442493    0.74430825237435
 p    1 1.00
             0.1687144                   1

13 0
 s    3 1.00
             18.731137    0.03349459952309
             2.8253937    0.23472694665786
             0.6401217    0.81375731841339
 s    1 1.00
             0.1612778                   1

14 0
 s    3 1.00
             18.731137    0.03349459952309
             2.8253937    0.23472694665786
             0.6401217    0.81375731841339
 s    1 1.00
             0.1612778                   1

15 0
 s    3 1.00
             18.731137    0.03349459952309
             2.8253937    0.23472694665786
             0.6401217    0.81375731841339
 s    1 1.00
             0.1612778                   1

16 0
 s    6 1.00
             3047.5249  0.0018347001629433
             457.36951    0.01403730124668
             103.94869   0.068842606114048
             29.210155    0.23218442062076
              9.286663    0.46794134155879
              3.163927    0.36231203217765
 s    3 1.00
             7.8682724   -0.11933240861517
             1.8812885   -0.16085421161283
             0.5442493     1.1434564825515
 s    1 1.00
             0.1687144                   1
 p    3 1.00
             7.8682724   0.068999095584993
             1.8812885    0.31642397975315
             0.5442493    0.74430825237435
 p    1 1.00
             0.1687144                   1

17 0
 s    6 1.00
             3047.5249  0.0018347001629433
             457.36951    0.01403730124668
             103.94869   0.068842606114048
             29.210155    0.23218442062076
              9.286663    0.46794134155879
              3.163927    0.36231203217765
 s    3 1.00
             7.8682724   -0.11933240861517
             1.8812885   -0.16085421161283
             0.5442493     1.1434564825515
 s    1 1.00
             0.1687144                   1
 p    3 1.00
             7.8682724   0.068999095584993
             1.8812885    0.31642397975315
             0.5442493    0.74430825237435
 p    1 1.00
             0.1687144                   1

18 0
 s    6 1.00
             3047.5249  0.0018347001629433
             457.36951    0.01403730124668
             103.94869   0.068842606114048
             29.210155    0.23218442062076
              9.286663    0.46794134155879
              3.163927    0.36231203217765
 s    3 1.00
             7.8682724   -0.11933240861517
             1.8812885   -0.16085421161283
             0.5442493     1.1434564825515
 s    1 1.00
             0.1687144                   1
 p    3 1.00
             7.8682724   0.068999095584993
             1.8812885    0.31642397975315
             0.5442493    0.74430825237435
 p    1 1.00
             0.1687144                   1

19 0
 s    6 1.00
             3047.5249  0.0018347001629433
             457.36951    0.01403730124668
             103.94869   0.068842606114048
             29.210155    0.23218442062076
              9.286663    0.46794134155879
              3.163927    0.36231203217765
 s    3 1.00
             7.8682724   -0.11933240861517
             1.8812885   -0.16085421161283
             0.5442493     1.1434564825515
 s    1 1.00
             0.1687144                   1
 p    3 1.00
             7.8682724   0.068999095584993
             1.8812885    0.31642397975315
             0.5442493    0.74430825237435
 p    1 1.00
             0.1687144                   1

20 0
 s    6 1.00
             3047.5249  0.0018347001629433
             457.36951    0.01403730124668
             103.94869   0.068842606114048
             29.210155    0.23218442062076
              9.286663    0.46794134155879
              3.163927    0.36231203217765
 s    3 1.00
             7.8682724   -0.11933240861517
             1.8812885   -0.16085421161283
             0.5442493     1.1434564825515
 s    1 1.00
             0.1687144                   1
 p    3 1.00
             7.8682724   0.068999095584993
             1.8812885    0.31642397975315
             0.5442493    0.74430825237435
 p    1 1.00
             0.1687144                   1

21 0
 s    3 1.00
             18.731137    0.03349459952309
             2.8253937    0.23472694665786
             0.6401217    0.81375731841339
 s    1 1.00
             0.1612778                   1

22 0
 s    3 1.00
             18.731137    0.03349459952309
             2.8253937    0.23472694665786
             0.6401217    0.81375731841339
 s    1 1.00
             0.1612778                   1

23 0
 s    3 1.00
             18.731137    0.03349459952309
             2.8253937    0.23472694665786
             0.6401217    0.81375731841339
 s    1 1.00
             0.1612778                   1

24 0
 s    6 1.00
             3047.5249  0.0018347001629433
             457.36951    0.01403730124668
             103.94869   0.068842606114048
             29.210155    0.23218442062076
              9.286663    0.46794134155879
              3.163927    0.36231203217765
 s    3 1.00
             7.8682724   -0.11933240861517
             1.8812885   -0.16085421161283
             0.5442493     1.1434564825515
 s    1 1.00
             0.1687144                   1
 p    3 1.00
             7.8682724   0.068999095584993
             1.8812885    0.31642397975315
             0.5442493    0.74430825237435
 p    1 1.00
             0.1687144                   1

25 0
 s    6 1.00
             3047.5249  0.0018347001629433
             457.36951    0.01403730124668
             103.94869   0.068842606114048
             29.210155    0.23218442062076
              9.286663    0.46794134155879
              3.163927    0.36231203217765
 s    3 1.00
             7.8682724   -0.11933240861517
             1.8812885   -0.16085421161283
             0.5442493     1.1434564825515
 s    1 1.00
             0.1687144                   1
 p    3 1.00
             7.8682724   0.068999095584993
             1.8812885    0.31642397975315
             0.5442493    0.74430825237435
 p    1 1.00
             0.1687144                   1

26 0
 s    6 1.00
             3047.5249  0.0018347001629433
             457.36951    0.01403730124668
             103.94869   0.068842606114048
             29.210155    0.23218442062076
              9.286663    0.46794134155879
              3.163927    0.36231203217765
 s    3 1.00
             7.8682724   -0.11933240861517
             1.8812885   -0.16085421161283
             0.5442493     1.1434564825515
 s    1 1.00
             0.1687144                   1
 p    3 1.00
             7.8682724   0.068999095584993
             1.8812885    0.31642397975315
             0.5442493    0.74430825237435
 p    1 1.00
             0.1687144                   1

27 0
 s    6 1.00
             3047.5249  0.0018347001629433
             457.36951    0.01403730124668
             103.94869   0.068842606114048
             29.210155    0.23218442062076
              9.286663    0.46794134155879
              3.163927    0.36231203217765
 s    3 1.00
             7.8682724   -0.11933240861517
             1.8812885   -0.16085421161283
             0.5442493     1.1434564825515
 s    1 1.00
             0.1687144                   1
 p    3 1.00
             7.8682724   0.068999095584993
             1.8812885    0.31642397975315
             0.5442493    0.74430825237435
 p    1 1.00
             0.1687144                   1

28 0
 s    3 1.00
             18.731137    0.03349459952309
             2.8253937    0.23472694665786
             0.6401217    0.81375731841339
 s    1 1.00
             0.1612778                   1

29 0
 s    3 1.00
             18.731137    0.03349459952309
             2.8253937    0.23472694665786
             0.6401217    0.81375731841339
 s    1 1.00
             0.1612778                   1

30 0
 s    3 1.00
             18.731137    0.03349459952309
             2.8253937    0.23472694665786
             0.6401217    0.81375731841339
 s    1 1.00
             0.1612778                   1

[5d]
[7f]
[9g]

[MO]
 Sym= B1u
 Ene=               0
 Spin= Alpha
 Occup=    1.00000
   1                     0
   2                     0
   3                     0
   4                     0
   5                     0
   6     0.082491823529938
   7                     0
   8                     0
   9     0.045478740916799
  10                     0
  11                     0
  12                     0
  13                     0
  14                     0
  15      0.14576874485122
  16                     0
  17                     0
  18     0.085526617181591
  19                     0
  20                     0
  21                     0
  22                     0
  23                     0
  24      0.13814522823592
  25                     0
  26                     0
  27     0.077412922353491
  28                     0
  29                     0
  30                     0
  31                     0
  32                     0
  33      0.17983012785667
  34                     0
  35                     0
  36      0.10544149278984
  37                     0
  38                     0
  39                     0
  40                     0
  41                     0
  42     0.062965809270958
  43                     0
  44                     0
  45     0.036423563123564
  46                     0
  47                     0
  48                     0
  49                     0
  50                     0
  51                     0
  52                     0
  53                     0
  54                     0
  55                     0
  56                     0
  57     0.082491823529938
  58                     0
  59                     0
  60     0.045478740916799
  61                     0
  62                     0
  63                     0
  64                     0
  65                     0
  66      0.14576874485122
  67                     0
  68                     0
  69     0.085526617181591
  70                     0
  71                     0
  72                     0
  73                     0
  74                     0
  75      0.13814522823592
  76                     0
  77                     0
  78     0.077412922353491
  79                     0
  80                     0
  81                     0
  82                     0
  83                     0
  84     0.062965809270958
  85                     0
  86                     0
  87     0.036423563123564
  88                     0
  89                     0
  90                     0
  91                     0
  92                     0
  93                     0
  94                     0
  95                     0
  96                     0
  97                     0
  98                     0
  99     0.082491823529938
 100                     0
 101                     0
 102     0.045478740916799
 103                     0
 104                     0
 105                     0
 106                     0
 107                     0
 108      0.14576874485122
 109                     0
 110                     0
 111     0.085526617181591
 112                     0
 113                     0
 114                     0
 115                     0
 116                     0
 117      0.13814522823592
 118                     0
 119                     0
 120     0.077412922353491
 121                     0
 122                     0
 123                     0
 124                     0
 125                     0
 126      0.17983012785667
 127                     0
 128                     0
 129      0.10544149278984
 130                     0
 131                     0
 132                     0
 133                     0
 134                     0
 135     0.062965809270958
 136                     0
 137                     0
 138     0.036423563123564
 139                     0
 140                     0
 141                     0
 142                     0
 143                     0
 144                     0
 145                     0
 146                     0
 147                     0
 148                     0
 149                     0
 150     0.082491823529938
 151                     0
 152                     0
 153     0.045478740916799
 154                     0
 155                     0
 156                     0
 157                     0
 158                     0
 159      0.14576874485122
 160                     0
 161                     0
 162     0.085526617181591
 163                     0
 164                     0
 165                     0
 166                     0
 167                     0
 168      0.13814522823592
 169                     0
 170                     0
 171     0.077412922353491
 172                     0
 173                     0
 174                     0
 175                     0
 176                     0
 177     0.062965809270958
 178                     0
 179                     0
 180     0.036423563123564
 181                     0
 182                     0
 183                     0
 184                     0
 185                     0
 186                     0
 Sym= B3g
 Ene=               1
 Spin= Alpha
 Occup=    1.00000
   1                     0
   2                     0
   3                     0
   4                     0
   5                     0
   6      0.13493448473718
   7                     0
   8                     0
   9     0.081565821492381
  10                     0
  11                     0
  12                     0
  13                     0
  14                     0
  15      0.16750082957654
  16                     0
  17                     0
  18      0.10323285797641
  19                     0
  20                     0
  21                     0
  22                     0
  23                     0
  24     0.084647903279405
  25                     0
  26                     0
  27     0.052084818534762
  28                     0
  29                     0
  30                     0
  31                     0
  32                     0
  33                     0
  34                     0
  35                     0
  36                     0
  37                     0
  38                     0
  39                     0
  40                     0
  41                     0
  42      0.12403942802351
  43                     0
  44                     0
  45      0.07576792717561
  46                     0
  47                     0
  48                     0
  49                     0
  50                     0
  51                     0
  52                     0
  53                     0
  54                     0
  55                     0
  56                     0
  57     -0.13493448473718
  58                     0
  59                     0
  60    -0.081565821492381
  61                     0
  62                     0
  63                     0
  64                     0
  65                     0
  66     -0.16750082957654
  67                     0
  68                     0
  69     -0.10323285797641
  70                     0
  71                     0
  72                     0
  73                     0
  74                     0
  75    -0.084647903279405
  76                     0
  77                     0
  78    -0.052084818534762
  79                     0
  80                     0
  81                     0
  82                     0
  83                     0
  84     -0.12403942802351
  85                     0
  86                     0
  87     -0.07576792717561
  88                     0
  89                     0
  90                     0
  91                     0
  92                     0
  93                     0
  94                     0
  95                     0
  96                     0
  97                     0
  98                     0
  99      0.13493448473718
 100                     0
 101                     0
 102     0.081565821492381
 103                     0
 104                     0
 105                     0
 106                     0
 107                     0
 108      0.16750082957654
 109                     0
 110                     0
 111      0.10323285797641
 112                     0
 113                     0
 114                     0
 115                     0
 116                     0
 117     0.084647903279405
 118                     0
 119                     0
 120     0.052084818534762
 121                     0
 122                     0
 123                     0
 124                     0
 125                     0
 126                     0
 127                     0
 128                     0
 129                     0
 130                     0
 131                     0
 132                     0
 133                     0
 134                     0
 135      0.12403942802351
 136                     0
 137                     0
 138      0.07576792717561
 139                     0
 140                     0
 141                     0
 142                     0
 143                     0
 144                     0
 145                     0
 146                     0
 147                     0
 148                     0
 149                     0
 150     -0.13493448473718
 151                     0
 152                     0
 153    -0.081565821492381
 154                     0
 155                     0
 156                     0
 157                     0
 158                     0
 159     -0.16750082957654
 160                     0
 161                     0
 162     -0.10323285797641
 163                     0
 164                     0
 165                     0
 166                     0
 167                     0
 168    -0.084647903279405
 169                     0
 170                     0
 171    -0.052084818534762
 172                     0
 173                     0
 174                     0
 175                     0
 176                     0
 177     -0.12403942802351
 178                     0
 179                     0
 180     -0.07576792717561
 181                     0
 182                     0
 183                     0
 184                     0
 185                     0
 186                     0
 Sym= B1u
 Ene=               2
 Spin= Alpha
 Occup=    1.00000
   1                     0
   2                     0
   3                     0
   4                     0
   5                     0
   6      0.13296507230934
   7                     0
   8                     0
   9     0.091357434916011
  10                     0
  11                     0
  12                     0
  13                     0
  14                     0
  15     0.035704220691806
  16                     0
  17                     0
  18     0.023068813401288
  19                     0
  20                     0
  21                     0
  22                     0
  23                     0
  24    -0.078570620429783
  25                     0
  26                     0
  27    -0.052936299400431
  28                     0
  29                     0
  30                     0
  31                     0
  32                     0
  33     -0.18270799306899
  34                     0
  35                     0
  36     -0.12312620715568
  37                     0
  38                     0
  39                     0
  40                     0
  41                     0
  42      0.17279866998562
  43                     0
  44                     0
  45      0.11497320042707
  46                     0
  47                     0
  48                     0
  49                     0
  50                     0
  51                     0
  52                     0
  53                     0
  54                     0
  55                     0
  56                     0
  57      0.13296507230934
  58                     0
  59                     0
  60     0.091357434916011
  61                     0
  62                     0
  63                     0
  64                     0
  65                     0
  66     0.035704220691806
  67                     0
  68                     0
  69     0.023068813401288
  70                     0
  71                     0
  72                     0
  73                     0
  74                     0
  75    -0.078570620429783
  76                     0
  77                     0
  78    -0.052936299400431
  79                     0
  80                     0
  81                     0
  82                     0
  83                     0
  84      0.17279866998562
  85                     0
  86                     0
  87      0.11497320042707
  88                     0
  89                     0
  90                     0
  91                     0
  92                     0
  93                     0
  94                     0
  95                     0
  96                     0
  97                     0
  98                     0
  99      0.13296507230934
 100                     0
 101                     0
 102     0.091357434916011
 103                     0
 104                     0
 105                     0
 106                     0
 107                     0
 108     0.035704220691806