 &FCI NORB=  18,NELEC=18,MS2=0,
  ORBSYM=1,1,1,1,1,1,1,1,1,1,1,1,1,1,1,1,1,1,
  ISYM=1,
 &END
 0.2175931014172833    1    1    1    1
 0.1800919598790121    1    1    2    2
 -0.03604603792208337    1    1    3    1
 0.1754267242135338    1    1    3    3
 0.210313580506237    1    1    4    4
 -0.03813623059377327    1    1    5    2
 0.1706866153635709    1    1    5    5
 0.1756663394847277    1    1    6    6
 -0.0330125303069148    1    1    7    4
 0.1718229054614477    1    1    7    7
 -0.001136731846187182    1    1    8    1
 0.04137518389851098    1    1    8    3
 0.2038633881194091    1    1    8    8
 0.03355228452018862    1    1    9    6
 0.190707525748736    1    1    9    9
 -0.0004718697450906879    1    1   10    2
 -0.02074822731945017    1    1   10    5
 0.1911720966282887    1    1   10   10
 -0.001159979312887617    1    1   11    4
 0.02926523358745708    1    1   11    7
 0.201779919720642    1    1   11   11
 0.002199584991184739    1    1   12    1
 -0.001574116291831975    1    1   12    3
 -0.03043617567844185    1    1   12    8
 0.1729155624959643    1    1   12   12
 -0.005957920770442061    1    1   13    2
 0.009876607946791639    1    1   13    5
 0.03422549365859665    1    1   13   10
 0.1805703888802359    1    1   13   13
 -0.01173672996986259    1    1   14    1
 0.006474747705578761    1    1   14    3
 0.001979211672729908    1    1   14    8
 -0.03213756934060046    1    1   14   12
 0.2163999576288253    1    1   14   14
 -0.009431798219799491    1    1   15    6
 0.02066534974322163    1    1   15    9
 0.1678429716712925    1    1   15   15
 -0.005724247583557347    1    1   16    4
 0.00178923174215971    1    1   16    7
 0.04339434725486568    1    1   16   11
 0.1774222197292935    1    1   16   16
 0.005757076109970522    1    1   17    6
 0.0001037460261656555    1    1   17    9
 -0.03804066710630571    1    1   17   15
 0.1866105593503669    1    1   17   17
 -0.0114770703599558    1    1   18    4
 0.002607769043401198    1    1   18    7
 0.001895606908353258    1    1   18   11
 0.03445971222584042    1    1   18   16
 0.2250340881380874    1    1   18   18
 0.06366008368742507    2    1    2    1
 0.04288765385099012    2    1    3    2
 -0.02239497363944715    2    1    5    1
 0.03937963783738866    2    1    5    3
 0.05995686869367807    2    1    6    4
 0.04097631409150697    2    1    7    6
 0.02533698907462118    2    1    8    2
 -0.05649093247603491    2    1    8    5
 0.01915913759677148    2    1    9    4
 -0.04898485033805635    2    1    9    7
 -0.0005544781815586806    2    1   10    1
 -0.0158194332428074    2    1   10    3
 -0.03343248781099701    2    1   10    8
 0.01993762772472373    2    1   11    6
 0.03191849347122643    2    1   11    9
 0.0001548057594641488    2    1   12    2
 0.007065901460543187    2    1   12    5
 -0.04956809154264633    2    1   12   10
 -0.004964239777425476    2    1   13    1
 -0.003657168813645349    2    1   13    3
 -0.02088050248435653    2    1   13    8
 0.04277709507762408    2    1   13   12
 -0.007281732009636102    2    1   14    2
 0.006958289853902917    2    1   14    5
 0.01932899632735877    2    1   14   10
 0.06031822059006404    2    1   14   13
 -0.006589374961549752    2    1   15    4
 -0.00718943725789181    2    1   15    7
 -0.05768320177473267    2    1   15   11
 0.003749609324129055    2    1   16    6
 0.01616315011706496    2    1   16    9
 0.03859429383179522    2    1   16   15
 0.007253503957865511    2    1   17    4
 -1.94745035010223e-05    2    1   17    7
 0.02669493228009657    2    1   17   11
 0.04550644328501473    2    1   17   16
 -0.005236451683452773    2    1   18    6
 -0.0007658427898198487    2    1   18    9
 0.02195772553957663    2    1   18   15
 -0.0646816564219049    2    1   18   17
 0.1800919598790121    2    2    1    1
 0.1873555697472291    2    2    2    2
 0.006564542531499067    2    2    3    1
 0.1688690698927954    2    2    3    3
 0.1748213119123922    2    2    4    4
 -0.01267511697785321    2    2    5    2
 0.1771810120933198    2    2    5    5
 0.181100763705097    2    2    6    6
 0.005975791942484486    2    2    7    4
 0.1708850101793491    2    2    7    7
 0.01790615900139347    2    2    8    1
 0.003896378270926338    2    2    8    3
 0.1837896434500906    2    2    8    8
 0.002622767892367486    2    2    9    6
 0.1716519053398313    2    2    9    9
 -0.01214830015204794    2    2   10    2
 0.003585568213485849    2    2   10    5
 0.1739512648573873    2    2   10   10
 0.01447752440531343    2    2   11    4
 0.002796329241047656    2    2   11    7
 0.1835540388934211    2    2   11   11
 -3.378081410968363e-05    2    2   12    1
 0.005644745033877307    2    2   12    3
 -0.003322490952745499    2    2   12    8
 0.1738425207166626    2    2   12   12
 -0.009311429211899756    2    2   13    2
 0.01396745430863333    2    2   13    5
 0.003075773049169047    2    2   13   10
 0.1843248585178087    2    2   13   13
 -0.008838976070029429    2    2   14    1
 -0.0009204242254884259    2    2   14    3
 -0.0141542650603891    2    2   14    8
 0.005713276614090355    2    2   14   12
 0.1779411912869541    2    2   14   14
 -0.01367811861997997    2    2   15    6
 -0.002682533042923469    2    2   15    9
 0.1779477908071196    2    2   15   15
 0.001565031443397058    2    2   16    4
 -0.006123752539179281    2    2   16    7
 0.004487375630752365    2    2   16   11
 0.1712351598523379    2    2   16   16
 0.009224600846231827    2    2   17    6
 0.01165591138313433    2    2   17    9
 -0.01288926922919339    2    2   17   15
 0.1915274125506663    2    2   17   17
 -0.00843138342370613    2    2   18    4
 -0.0004414975127433537    2    2   18    7
 -0.01805801338026673    2    2   18   11
 -0.007541831599399364    2    2   18   16
 0.183544923275878    2    2   18   18
 -0.03604603792208336    3    1    1    1
 0.00656454253149908    3    1    2    2
 0.04058546126779058    3    1    3    1
 -0.006455136073195079    3    1    3    3
 -0.03382342892629571    3    1    4    4
 0.02443501333015087    3    1    5    2
 0.006021263600245252    3    1    5    5
 0.005025674979224761    3    1    6    6
 0.03698929811681356    3    1    7    4
 -0.0009299655244160064    3    1    7    7
 0.01801454085478143    3    1    8    1
 -0.03598607803499151    3    1    8    3
 -0.01979580007992376    3    1    8    8
 -0.02937085272407096    3    1    9    6
 -0.01796023251006585    3    1    9    9
 -0.01079258164682292    3    1   10    2
 0.02286932337697942    3    1   10    5
 -0.01625459535241745    3    1   10   10
 0.01477508092488757    3    1   11    4
 -0.02537225386831371    3    1   11    7
 -0.01797259450987347    3    1   11   11
 -0.0023610862214478    3    1   12    1
 0.007077396940590612    3    1   12    3
 0.02604323494853548    3    1   12    8
 0.0007791535507189469    3    1   12   12
 -0.002837878064487071    3    1   13    2
 0.003547915877706761    3    1   13    5
 -0.02961602494111467    3    1   13   10
 0.003371388545262177    3    1   13   13
 0.003381013730686547    3    1   14    1
 -0.007288202025533212    3    1   14    3
 -0.01528182868727649    3    1   14    8
 0.03597153608793516    3    1   14   12
 -0.03677912180484533    3    1   14   14
 -0.00372988542485456    3    1   15    6
 -0.02195476043692501    3    1   15    9
 0.00946809602398542    3    1   15   15
 0.007130446616491226    3    1   16    4
 -0.007708616872745144    3    1   16    7
 -0.03735830075683097    3    1   16   11
 -0.006133085486712819    3    1   16   16
 0.002962212067009876    3    1   17    6
 0.01068471373774582    3    1   17    9
 0.02416022614051615    3    1   17   15
 0.004274832089445749    3    1   17   17
 0.003478999891365159    3    1   18    4
 -0.003130733485067282    3    1   18    7
 -0.0188913494174724    3    1   18   11
 -0.04004144251379499    3    1   18   16
 -0.03997388317468989    3    1   18   18
 0.0428876538509901    3    2    2    1
 0.05136162154575981    3    2    3    2
 0.005506060644518276    3    2    5    1
 0.04821798904855353    3    2    5    3
 0.04063770548323435    3    2    6    4
 0.05146557755461006    3    2    7    6
 -0.0007748566928682125    3    2    8    2
 -0.04961640591490813    3    2    8    5
 -0.009663160549034296    3    2    9    4
 -0.04296399814982355    3    2    9    7
 -0.007100159144053955    3    2   10    1
 0.001805176401071309    3    2   10    3
 -0.02991738656722792    3    2   10    8
 -0.0001220786054955148    3    2   11    6
 0.02869643604144852    3    2   11    9
 0.00368661398238794    3    2   12    2
 -0.01065091708028029    3    2   12    5
 -0.04517393722295979    3    2   12   10
 -0.003084794581945468    3    2   13    1
 -0.0004952940486402568    3    2   13    3
 -0.0004892311102021532    3    2   13    8
 0.05209068235306138    3    2   13   12
 -0.004552992051424631    3    2   14    2
 0.004856985982374891    3    2   14    5
 -0.008162984839360329    3    2   14   10
 0.03990944051024473    3    2   14   13
 -0.004710146132562712    3    2   15    4
 0.01021920720491273    3    2   15    7
 -0.05225117957740427    3    2   15   11
 0.0001779843835917641    3    2   16    6
 -0.0008368154462899856    3    2   16    9
 0.05030756021377616    3    2   16   15
 0.004327988878730853    3    2   17    4
 -0.003723869715042288    3    2   17    7
 -0.0009126869190575368    3    2   17   11
 0.05103918383864532    3    2   17   16
 -0.002975671924086705    3    2   18    6
 -0.006308755382616028    3    2   18    9
 -0.004203429112051946    3    2   18   15
 -0.04173499583676731    3    2   18   17
 0.1754267242135338    3    3    1    1
 0.1688690698927953    3    3    2    2
 -0.006455136073195074    3    3    3    1
 0.1820993043684256    3    3    3    3
 0.1699764056976275    3    3    4    4
 0.006671220249284527    3    3    5    2
 0.1723338722536226    3    3    5    5
 0.1666043050818876    3    3    6    6
 -0.002729816385471767    3    3    7    4
 0.1733598345351459    3    3    7    7
 -0.01353817664043555    3    3    8    1
 0.004707402068526698    3    3    8    3
 0.1796107811671165    3    3    8    8
 -0.004042129114685792    3    3    9    6
 0.1668801409619322    3    3    9    9
 0.002642393170536043    3    3   10    2
 0.004027921032377028    3    3   10    5
 0.1692588697499531    3    3   10   10
 -0.01076248237569492    3    3   11    4
 0.002837011905488851    3    3   11    7
 0.179805931978612    3    3   11   11
 0.005882840363522998    3    3   12    1
 -0.0106433913768131    3    3   12    3
 -0.003174520178541158    3    3   12    8
 0.17591443144831    3    3   12   12
 -0.001751322915819117    3    3   13    2
 -0.003700249489218457    3    3   13    5
 -0.003555821720473932    3    3   13   10
 0.1695000704488983    3    3   13   13
 -0.00904138811655987    3    3   14    1
 0.006709780030166832    3    3   14    3
 0.01027832424217162    3    3   14    8
 -0.003168769501631563    3    3   14   12
 0.1734428146276523    3    3   14   14
 0.004159543448583216    3    3   15    6
 -0.003441076007574448    3    3   15    9
 0.1745232065060724    3    3   15   15
 -0.006672257934587923    3    3   16    4
 0.01009690333053898    3    3   16    7
 0.003805264513104051    3    3   16   11
 0.1842025926829776    3    3   16   16
 0.001025530721934268    3    3   17    6
 -0.002773349637712591    3    3   17    9
 0.006712112454484274    3    3   17   15
 0.1707012751478209    3    3   17   17
 -0.008568828666770919    3    3   18    4
 0.006042485500151305    3    3   18    7
 0.01377089522133497    3    3   18   11
 0.007562701098665673    3    3   18   16
 0.1792293442888645    3    3   18   18
 0.04642547678622448    4    1    4    1
 -0.01289396149645193    4    1    4    3
 0.03239907035105892    4    1    6    2
 -0.01269011489085756    4    1    6    5
 -0.01320641297939177    4    1    7    1
 0.03054268943284628    4    1    7    3
 -0.00030639533762501    4    1    8    4
 0.008511222564970064    4    1    8    7
 0.01302019435148598    4    1    9    2
 -0.03254504359168183    4    1    9    5
 0.006465497264576879    4    1   10    6
 0.03592868361009246    4    1   10    9
 -0.0008840051199820408    4    1   11    1
 0.0134624831512667    4    1   11    3
 0.03433400114830935    4    1   11    8
 -0.005059343074766486    4    1   12    4
 0.01823684873132292    4    1   12    7
 -0.007125635521730699    4    1   12   11
 0.01628999028140584    4    1   13    6
 0.008157731599980402    4    1   13    9
 0.02115458087473763    4    1   14    4
 -0.006768236581122228    4    1   14    7
 0.000457471599198447    4    1   14   11
 -0.003941966348622045    4    1   15    2
 0.0006669120410285975    4    1   15    5
 0.03326121996084477    4    1   15   10
 0.01186340006272872    4    1   15   13
 -0.002370891571046701    4    1   16    1
 0.004537187583122789    4    1   16    3
 0.0144715372280093    4    1   16    8
 -0.03136482731684938    4    1   16   12
 0.0119248074923359    4    1   16   14
 0.003166849673642751    4    1   17    2
 -0.004052224948518661    4    1   17    5
 -0.0141957166152211    4    1   17   10
 -0.0347798123959373    4    1   17   13
 -0.004158164062451352    4    1   18    1
 0.002539813141811023    4    1   18    3
 0.001171940606588627    4    1   18    8
 -0.01336637840113243    4    1   18   12
 0.04904936227562122    4    1   18   14
 0.0241375348209651    4    2    4    2
 -0.01024130214774898    4    2    5    4
 0.02418305312669416    4    2    6    1
 0.01351742020678563    4    2    6    3
 0.01350468909373713    4    2    7    2
 0.01492910359481792    4    2    7    5
 0.008062907229782791    4    2    8    6
 0.01047043050247819    4    2    9    1
 -0.01653608310116959    4    2    9    3
 0.01023059222964685    4    2    9    8
 0.004684408462532867    4    2   10    4
 -0.0182312487818863    4    2   10    7
 0.01085036466174006    4    2   11    2
 -0.01663395539558337    4    2   11    5
 -0.0103937601549791    4    2   11   10
 0.007638153059095086    4    2   12    6
 -0.01828350093749979    4    2   12    9
 0.01053801422474919    4    2   13    4
 0.007246634746842957    4    2   13    7
 -0.006712149718621121    4    2   13   11
 0.01053810005309984    4    2   14    6
 0.006016595576260615    4    2   14    9
 -0.003228539996927753    4    2   15    1
 -0.004094882569930466    4    2   15    3
 -0.01620936273694409    4    2   15    8
 -0.01621140912398848    4    2   15   12
 0.009346147752886613    4    2   15   14
 0.001876136608520072    4    2   16    2
 -0.004892583271439454    4    2   16    5
 0.01709916792721922    4    2   16   10
 -0.01496313013096309    4    2   16   13
 0.003066696791094799    4    2   17    1
 0.001498283141146849    4    2   17    3
 0.01138239135295615    4    2   17    8
 -0.01434107396347846    4    2   17   12
 -0.02467858352205246    4    2   17   14
 -0.002917626188244534    4    2   18    2
 0.003257677170850952    4    2   18    5
 0.01091616581232114    4    2   18   10
 0.02471828278875812    4    2   18   13
 -0.01289396149645193    4    3    4    1
 0.0188353465882313    4    3    4    3
 0.007106314609833594    4    3    6    2
 0.01188417925994165    4    3    6    5
 0.01899629428268697    4    3    7    1
 0.002343920029780948    4    3    7    3
 0.006705919689241511    4    3    8    4
 -0.009844340616339963    4    3    8    7
 -0.01390272247170847    4    3    9    2
 0.001727033818275394    4    3    9    5
 -0.0137679727572168    4    3   10    6
 -0.01310957761645254    4    3   10    9
 0.008988894431248133    4    3   11    1
 -0.01375862018659293    4    3   11    3
 -0.004647687993866708    4    3   11    8
 0.008294862204221846    4    3   12    4
 0.006751539393780751    4    3   12    7
 0.009573926215334342    4    3   12   11
 0.002354468529087955    4    3   13    6
 -0.01429900384339285    4    3   13    9
 -0.005710402091312771    4    3   14    4
 0.008843665302462658    4    3   14    7
 -0.005460845111084742    4    3   14   11
 -0.003193342734483307    4    3   15    2
 0.01112183385369394    4    3   15    5
 -0.001296152555140293    4    3   15   10
 -0.01289964632155664    4    3   15   13
 0.003447141188590801    4    3   16    1
 -0.005786832151724765    4    3   16    3
 -0.01352839765176071    4    3   16    8
 -0.003727430212744492    4    3   16   12
 -0.01823939462427892    4    3   16   14
 0.001435551654452036    4    3   17    2
 -0.003659705166161838    4    3   17    5
 0.01472444178682123    4    3   17   10
 -0.006069667184847666    4    3   17   13
 0.001651129723244583    4    3   18    1
 -0.003321000223292297    4    3   18    3
 -0.009232174828568812    4    3   18    8
 0.01873396116587148    4    3   18   12
 -0.0145069645079258    4    3   18   14
 0.2103135805062371    4    4    1    1
 0.1748213119123922    4    4    2    2
 -0.0338234289262957    4    4    3    1
 0.1699764056976275    4    4    3    3
 0.2090994948890095    4    4    4    4
 -0.03569109442458279    4    4    5    2
 0.1664684958032312    4    4    5    5
 0.1746236309777227    4    4    6    6
 -0.03317237825080005    4    4    7    4
 0.1712221212595082    4    4    7    7
 -0.0006783367723619313    4    4    8    1
 0.03664667908615742    4    4    8    3
 0.1917176374021699    4    4    8    8
 0.03405172230943322    4    4    9    6
 0.1928945463720116    4    4    9    9
 0.002323724267277276    4    4   10    2
 -0.02562421033947739    4    4   10    5
 0.1929651772261901    4    4   10   10
 -0.0009222859429602353    4    4   11    4
 0.02689667375920708    4    4   11    7
 0.1918434327809478    4    4   11   11
 -0.0007983729921668615    4    4   12    1
 0.004051243587632339    4    4   12    3
 -0.02687052992755243    4    4   12    8
 0.1715929727817223    4    4   12   12
 0.0004845379872573315    4    4   13    2
 0.006256230415416991    4    4   13    5
 0.03444127185101008    4    4   13   10
 0.178701503102775    4    4   13   13
 -0.001308615981495699    4    4   14    1
 0.002729210666791917    4    4   14    3
 0.001605918842319984    4    4   14    8
 -0.03197733143371832    4    4   14   12
 0.2139587977438934    4    4   14   14
 -0.006831681298366064    4    4   15    6
 0.02535268114784859    4    4   15    9
 0.1651008031712934    4    4   15   15
 -0.003042014292056141    4    4   16    4
 -0.003214875318264767    4    4   16    7
 0.03894407056565313    4    4   16   11
 0.1728868413513013    4    4   16   16
 4.633081354580139e-05    4    4   17    6
 -0.002950521221336764    4    4   17    9
 -0.03609333094694771    4    4   17   15
 0.1820282535036223    4    4   17   17
 -0.002240152931606705    4    4   18    4
 -0.0006677797324431851    4    4   18    7
 0.001401033629778649    4    4   18   11
 0.03271094408820092    4    4   18   16
 0.2186232031008493    4    4   18   18
 -0.02239497363944715    5    1    2    1
 0.005506060644518275    5    1    3    2
 0.02685342343038001    5    1    5    1
 0.006646391244112777    5    1    5    3
 -0.02038695293509198    5    1    6    4
 0.007519854546863202    5    1    7    6
 -0.02599631681058865    5    1    8    2
 0.009657168480076707    5    1    8    5
 -0.02689216269936419    5    1    9    4
 0.007208245514465263    5    1    9    7
 -0.00508987595474363    5    1   10    1
 0.01657156591337279    5    1   10    3
 0.005174819732038332    5    1   10    8
 -0.01994063568741525    5    1   11    6
 -0.004857873643523329    5    1   11    9
 0.003322129802734576    5    1   12    2
 -0.01640345508489349    5    1   12    5
 0.005809752777847874    5    1   12   10
 0.002969450190788871    5    1   13    1
 0.003127885317351718    5    1   13    3
 0.02037111448404618    5    1   13    8
 0.006338166310715178    5    1   13   12
 0.003805073738471396    5    1   14    2
 -0.003079740113599343    5    1   14    5
 -0.02581443391173975    5    1   14   10
 -0.02156106378141244    5    1   14   13
 0.002814400912003444    5    1   15    4
 0.01605321614221296    5    1   15    7
 0.008273306604418716    5    1   15   11
 -0.003584102530970832    5    1   16    6
 -0.01612912098258567    5    1   16    9
 0.009305788934879069    5    1   16   15
 -0.00400294640372841    5    1   17    4
 -0.003409682241537998    5    1   17    7
 -0.02744621644770284    5    1   17   11
 0.002657648223095208    5    1   17   16
 0.003224933454981574    5    1   18    6
 -0.004255966405280749    5    1   18    9
 -0.02533305568477045    5    1   18   15
 0.02461512501009911    5    1   18   17
 -0.03813623059377327    5    2    1    1
 -0.0126751169778532    5    2    2    2
 0.02443501333015087    5    2    3    1
 0.00667122024928452    5    2    3    3
 -0.03569109442458279    5    2    4    4
 0.04162986188214788    5    2    5    2
 0.0002172666336381723    5    2    5    5
 -0.009617418414072166    5    2    6    6
 0.02527286246059369    5    2    7    4
 0.001720375307746912    5    2    7    7
 -0.01453562252278225    5    2    8    1
 -0.03244364174580928    5    2    8    3
 -0.02354296958950252    5    2    8    8
 -0.03343595458275847    5    2    9    6
 -0.02079216963414651    5    2    9    9
 0.004889674595922574    5    2   10    2
 0.02061500902435349    5    2   10    5
 -0.01922134558465618    5    2   10   10
 -0.01135776720839286    5    2   11    4
 -0.02330746861435896    5    2   11    7
 -0.02133617850190903    5    2   11   11
 0.003522607418792986    5    2   12    1
 -0.0087636517127962    5    2   12    3
 0.02421887104300151    5    2   12    8
 0.002790556599870308    5    2   12   12
 0.005791617180605811    5    2   13    2
 -0.01445220964569275    5    2   13    5
 -0.03369255607691168    5    2   13   10
 -0.01163882502525077    5    2   13   13
 0.004049731359205062    5    2   14    1
 0.000630983305145299    5    2   14    3
 0.01014863527165564    5    2   14    8
 0.0241905719728233    5    2   14   12
 -0.03828059851917298    5    2   14   14
 0.01431799099829452    5    2   15    6
 -0.02013142108917078    5    2   15    9
 0.004818107695644058    5    2   15   15
 -0.001465587354495006    5    2   16    4
 0.008165722654636158    5    2   16    7
 -0.03520918184272999    5    2   16   11
 0.006665512251759115    5    2   16   16
 -0.006234954223614008    5    2   17    6
 -0.004669652506548733    5    2   17    9
 0.04165818079238845    5    2   17   15
 -0.01721219150344888    5    2   17   17
 0.004125211774908525    5    2   18    4
 0.003316543822309457    5    2   18    7
 0.01412349221356879    5    2   18   11
 -0.02188753956970587    5    2   18   16
 -0.04158902784597761    5    2   18   18
 0.03937963783738867    5    3    2    1
 0.04821798904855353    5    3    3    2
 0.006646391244112777    5    3    5    1
 0.05487657158618157    5    3    5    3
 0.03911008507034038    5    3    6    4
 0.0439956316133513    5    3    7    6
 -0.01020799040541186    5    3    8    2
 -0.04861278320994078    5    3    8    5
 -0.002468658991780305    5    3    9    4
 -0.0464810496284417    5    3    9    7
 0.004949958193574152    5    3   10    1
 0.005144413795997748    5    3   10    3
 -0.02936389310880926    5    3   10    8
 -0.007834294178813136    5    3   11    6
 0.02829503162935046    5    3   11    9
 -0.00459523655412816    5    3   12    2
 -0.01488649045372544    5    3   12    5
 -0.04799767903602869    5    3   12   10
 0.001123845882556882    5    3   13    1
 -0.007998663078431825    5    3   13    3
 0.006586048383745277    5    3   13    8
 0.04530465180869762    5    3   13   12
 -0.0003422902976608409    5    3   14    2
 -0.005206542353525938    5    3   14    5
 -0.002039798446922471    5    3   14   10
 0.03858928911601411    5    3   14   13
 0.00616944460267416    5    3   15    4
 0.01462336002682385    5    3   15    7
 -0.05168923722577314    5    3   15   11
 0.007513235341412985    5    3   16    6
 -0.004418467833240693    5    3   16    9
 0.05648375692594593    5    3   16   15
 -0.0001924633103876862    5    3   17    4
 0.003944481874606416    5    3   17    7
 -0.009943724072999649    5    3   17   11
 0.04828657430630962    5    3   17   16
 0.001289637278992864    5    3   18    6
 0.004114494352160266    5    3   18    9
 -0.006086739182554046    5    3   18   15
 -0.03780452486860895    5    3   18   17
 -0.01024130214774898    5    4    4    2
 0.01560478334078831    5    4    5    4
 -0.01024868320855662    5    4    6    1
 0.006848374371757001    5    4    6    3
 0.007390580742248727    5    4    7    2
 0.000165634308019286    5    4    7    5
 -0.009203868009053031    5    4    8    6
 -0.01725643772834918    5    4    9    1
 0.001481262583455741    5    4    9    3
 -0.002026007196915348    5    4    9    8
 -0.01234095921731619    5    4   10    4
 0.01009123959446322    5    4   10    7
 -0.01172376144710527    5    4   11    2
 0.002923547430663096    5    4   11    5
 0.001696329485332973    5    4   11   10
 0.007074567742323825    5    4   12    6
 0.009871387258530791    5    4   12    9
 -0.00385982192844017    5    4   13    4
 0.007315337154749338    5    4   13    7
 0.008637387721025326    5    4   13   11
 -0.003985377822310441    5    4   14    6
 -0.01312658438803252    5    4   14    9
 0.0003182133315179508    5    4   15    1
 0.00950391250965694    5    4   15    3
 0.002670836677113932    5    4   15    8
 -0.0004199579820872335    5    4   15   12
 -0.01497111662215004    5    4   15   14
 -0.003430441225059396    5    4   16    2
 0.009722558912170587    5    4   16    5
 -0.001042280130785794    5    4   16   10
 -0.00617915488008336    5    4   16   13
 -0.002162188723139166    5    4   17    1
 -0.003252376534137947    5    4   17    3
 -0.01170846797808543    5    4   17    8
 -0.006919839321451253    5    4   17   12
 0.01125161974173395    5    4   17   14
 0.002081443563301392    5    4   18    2
 -0.0002078414785718437    5    4   18    5
 -0.01708680198629679    5    4   18   10
 -0.01122401670636122    5    4   18   13
 0.1706866153635709    5    5    1    1
 0.1771810120933199    5    5    2    2
 0.006021263600245256    5    5    3    1
 0.1723338722536225    5    5    3    3
 0.1664684958032311    5    5    4    4
 0.0002172666336381676    5    5    5    2
 0.1804133226793904    5    5    5    5
 0.1694365678168682    5    5    6    6
 0.002645183351408374    5    5    7    4
 0.1661300784615025    5    5    7    7
 0.006525854424871939    5    5    8    1
 -0.00691887734438675    5    5    8    3
 0.1785315710228166    5    5    8    8
 0.0006152164159927473    5    5    9    6
 0.1684656695811428    5    5    9    9
 0.001261896478137886    5    5   10    2
 0.009791369314083427    5    5   10    5
 0.1704955006161136    5    5   10   10
 0.004916446303809083    5    5   11    4
 -0.005507025096545128    5    5   11    7
 0.1789002194386723    5    5   11   11
 -0.005600872460082789    5    5   12    1
 -0.007535932004237958    5    5   12    3
 0.004433156307159895    5    5   12    8
 0.1694274551754163    5    5   12   12
 -0.01218909266222144    5    5   13    2
 -0.0003004128845056131    5    5   13    5
 0.0004906350407490786    5    5   13   10
 0.1732223090154204    5    5   13   13
 -0.006429321212619605    5    5   14    1
 -0.005300371907898808    5    5   14    3
 -0.005374702421502746    5    5   14    8
 0.003016387742702936    5    5   14   12
 0.1696967696341067    5    5   14   14
 0.00155295238354545    5    5   15    6
 -0.009100281602933562    5    5   15    9
 0.1816172682185748    5    5   15   15
 0.006283512803019529    5    5   16    4
 0.006649002036439131    5    5   16    7
 -0.006501991570969106    5    5   16   11
 0.1747507576545268    5    5   16   16
 0.01144167758938295    5    5   17    6
 -0.0002841049781194234    5    5   17    9
 0.0002499799171528541    5    5   17   15
 0.180689216640999    5    5   17   17
 -0.005843299720129288    5    5   18    4
 -0.004695948143599442    5    5   18    7
 -0.006788810832205989    5    5   18   11
 -0.006679602381046688    5    5   18   16
 0.1736806908594905    5    5   18   18
 0.02418305312669416    6    1    4    2
 -0.01024868320855662    6    1    5    4
 0.02424824312220908    6    1    6    1
 0.01352059014698484    6    1    6    3
 0.01353278476708456    6    1    7    2
 0.01507844820290612    6    1    7    5
 0.007909190687910702    6    1    8    6
 0.01054856927623215    6    1    9    1
 -0.01674905833741107    6    1    9    3
 0.0100651513016306    6    1    9    8
 0.004926193517659421    6    1   10    4
 -0.01854454669403489    6    1   10    7
 0.0106610008083317    6    1   11    2
 -0.01640089139715886    6    1   11    5
 -0.01037297827131445    6    1   11   10
 0.007797255856564802    6    1   12    6
 -0.01850903793518776    6    1   12    9
 0.01091933359376497    6    1   13    4
 0.007323678354195926    6    1   13    7
 -0.006595437423808145    6    1   13   11
 0.01085744769242892    6    1   14    6
 0.006243561377973382    6    1   14    9
 -0.003022927863013696    6    1   15    1
 -0.004252615185048996    6    1   15    3
 -0.01606611721801099    6    1   15    8
 -0.01638374805610188    6    1   15   12
 0.00937025462646621    6    1   15   14
 0.001710978703423081    6    1   16    2
 -0.004952048988170275    6    1   16    5
 0.01725805169442171    6    1   16   10
 -0.01498566526202062    6    1   16   13
 0.002697473678172315    6    1   17    1
 0.001424311201254403    6    1   17    3
 0.01120484129221226    6    1   17    8
 -0.01434287073742803    6    1   17   12
 -0.02473941551507386    6    1   17   14
 -0.002613026055526911    6    1   18    2
 0.00305769250375716    6    1   18    5
 0.01098305929993863    6    1   18   10
 0.02476460929898161    6    1   18   13
 0.03239907035105891    6    2    4    1
 0.007106314609833592    6    2    4    3
 0.03963161636661078    6    2    6    2
 8.489420839343866e-05    6    2    6    5