 &FCI NORB=  18,NELEC=18,MS2=0,
  ORBSYM=1,1,1,1,1,1,1,1,1,1,1,1,1,1,1,1,1,1,
  ISYM=1,
 &END
 0.6270576976562726    1    1    1    1
 -0.001474942270465804    1    1    2    1
 0.2049699074456816    1    1    2    2
 0.004301656147246618    1    1    3    1
 0.0003207861099871911    1    1    3    2
 0.3181523194394145    1    1    3    3
 -0.001658708238317605    1    1    4    1
 -0.0001886689598214905    1    1    4    2
 -0.002313427434458193    1    1    4    3
 0.2015704767713204    1    1    4    4
 -3.715317705424969e-06    1    1    5    1
 2.717033709034986e-05    1    1    5    2
 -0.0001212246009732038    1    1    5    3
 1.152843285431117e-05    1    1    5    4
 0.1063267845368388    1    1    5    5
 -1.859380341437588e-05    1    1    6    1
 2.374592290081645e-05    1    1    6    2
 0.0001099695090561195    1    1    6    3
 -0.0005433896736053561    1    1    6    4
 0.0003973335969519598    1    1    6    5
 0.1210117236960348    1    1    6    6
 -1.859380093728353e-05    1    1    7    1
 -0.0005036030520667957    1    1    7    2
 0.0001099695116679694    1    1    7    3
 5.212776627417546e-05    1    1    7    4
 -1.168895046771163e-05    1    1    7    5
 1.190425264423005e-06    1    1    7    6
 0.1210117236959973    1    1    7    7
 0.001474942275740804    1    1    8    1
 -3.356161262680967e-05    1    1    8    2
 -0.0003207861129292681    1    1    8    3
 -0.001312879647781487    1    1    8    4
 1.162894876716407e-05    1    1    8    5
 0.0005036030521940963    1    1    8    6
 -2.374592275552098e-05    1    1    8    7
 0.2049699074462114    1    1    8    8
 -0.001658708247749914    1    1    9    1
 0.001312879647854127    1    1    9    2
 -0.002313427444448314    1    1    9    3
 -0.0009971852716033098    1    1    9    4
 5.263227950199355e-05    1    1    9    5
 5.212776616857028e-05    1    1    9    6
 -0.0005433896734303585    1    1    9    7
 0.0001886689598890697    1    1    9    8
 0.2015704767719596    1    1    9    9
 0.004247927214521061    1    1   10    1
 -0.002916467653391096    1    1   10    2
 -0.0005701002242037874    1    1   10    3
 -0.0004634795481637079    1    1   10    4
 -0.000103003338239294    1    1   10    5
 9.731712982223203e-05    1    1   10    6
 -3.565001708790746e-05    1    1   10    7
 0.0003647280753892311    1    1   10    8
 0.0006301193724771036    1    1   10    9
 0.3213364641983938    1    1   10   10
 -0.0009585429811781802    1    1   11    1
 -0.0007685405125667167    1    1   11    2
 -0.001521849401322514    1    1   11    3
 0.0002267643991749177    1    1   11    4
 -7.533250694327957e-06    1    1   11    5
 -9.824981362636226e-06    1    1   11    6
 0.00156611428914555    1    1   11    7
 -4.997333849462776e-05    1    1   11    8
 -0.0005905021950481497    1    1   11    9
 -0.0017842889073134    1    1   11   10
 0.1783935910318633    1    1   11   11
 -0.0009294026439070642    1    1   12    1
 3.629543792589124e-05    1    1   12    2
 -0.0001756722378873998    1    1   12    3
 -0.0001847651605415517    1    1   12    4
 -0.0006219666701786568    1    1   12    5
 0.000223935135662433    1    1   12    6
 -2.331508359032235e-05    1    1   12    7
 0.001779790364435594    1    1   12    8
 0.0001067305184631515    1    1   12    9
 -1.843827584715251e-05    1    1   12   10
 -3.15176195419879e-05    1    1   12   11
 0.1369767503412014    1    1   12   12
 -0.0009294026434486637    1    1   13    1
 -0.001779790369736208    1    1   13    2
 -0.0001756722370624914    1    1   13    3
 0.0001067305182776579    1    1   13    4
 1.830558671445796e-06    1    1   13    5
 -2.331508359304266e-05    1    1   13    6
 0.0002239351358132627    1    1   13    7
 -3.629543789641985e-05    1    1   13    8
 -0.0001847651605485706    1    1   13    9
 -0.0001342896589022413    1    1   13   10
 0.0006699054485345498    1    1   13   11
 2.043985618666086e-06    1    1   13   12
 0.1369767503412911    1    1   13   13
 -0.004247927203198884    1    1   14    1
 0.0003647280728737234    1    1   14    2
 0.0005701002243131558    1    1   14    3
 -0.0006301193712886571    1    1   14    4
 -0.0004387104730696583    1    1   14    5
 3.56500202003928e-05    1    1   14    6
 -9.731712929696776e-05    1    1   14    7
 -0.002916467655441384    1    1   14    8
 0.000463479547328751    1    1   14    9
 0.0006654735786091462    1    1   14   10
 -0.0002044368664591457    1    1   14   11
 0.0001342896597234892    1    1   14   12
 1.843827471169346e-05    1    1   14   13
 0.3213364641982649    1    1   14   14
 -0.0004865791481572155    1    1   15    1
 5.708154694334842e-06    1    1   15    2
 -5.339070632731845e-05    1    1   15    3
 -0.0001140442019507311    1    1   15    4
 -0.000120022571430417    1    1   15    5
 0.0002273189219573698    1    1   15    6
 -3.929065317307809e-06    1    1   15    7
 -0.0001367938374394509    1    1   15    8
 4.395164210098472e-05    1    1   15    9
 -0.0001382475853214246    1    1   15   10
 8.07796628253784e-06    1    1   15   11
 -0.000390581979401475    1    1   15   12
 1.770469018115525e-05    1    1   15   13
 0.0001183844935463988    1    1   15   14
 0.1020128534709485    1    1   15   15
 0.000486579145640095    1    1   16    1
 -0.0001367938370518838    1    1   16    2
 5.339070549992106e-05    1    1   16    3
 -4.395164209845722e-05    1    1   16    4
 -1.798039468801046e-06    1    1   16    5
 3.929065312143984e-06    1    1   16    6
 -0.0002273189214126918    1    1   16    7
 5.708154657388911e-06    1    1   16    8
 0.000114044201834807    1    1   16    9
 0.0001183844928565467    1    1   16   10
 -0.0002130372197897855    1    1   16   11
 -1.770469017702196e-05    1    1   16   12
 0.0003905819786026463    1    1   16   13
 -0.000138247585147012    1    1   16   14
 -2.608534190177376e-06    1    1   16   15
 0.1020128534709228    1    1   16   16
 0.0009585429737209643    1    1   17    1
 -4.997333852757027e-05    1    1   17    2
 0.001521849398955171    1    1   17    3
 0.0005905021954594261    1    1   17    4
 2.070553104950796e-06    1    1   17    5
 -0.00156611429032727    1    1   17    6
 9.824981399978366e-06    1    1   17    7
 -0.0007685405132291882    1    1   17    8
 -0.0002267643993480782    1    1   17    9
 -0.0002044368663594122    1    1   17   10
 -1.396261018513827e-05    1    1   17   11
 -0.0006699054487130391    1    1   17   12
 3.151761968028463e-05    1    1   17   13
 -0.001784288907831276    1    1   17   14
 -0.0002130372186749435    1    1   17   15
 8.077966274070371e-06    1    1   17   16
 0.1783935910317125    1    1   17   17
 -3.715317027838064e-06    1    1   18    1
 -1.162894882172916e-05    1    1   18    2
 -0.0001212246014472612    1    1   18    3
 5.263227950372078e-05    1    1   18    4
 -4.564163832763835e-06    1    1   18    5
 -1.168895046636853e-05    1    1   18    6
 0.0003973335969942417    1    1   18    7
 -2.717033701659711e-05    1    1   18    8
 1.152843282888272e-05    1    1   18    9
 0.0004387104740244246    1    1   18   10
 -2.070551968474466e-06    1    1   18   11
 1.830558670732385e-06    1    1   18   12
 -0.0006219666714724834    1    1   18   13
 0.0001030033383561297    1    1   18   14
 1.798039467789048e-06    1    1   18   15
 0.0001200225716292726    1    1   18   16
 7.533250693151402e-06    1    1   18   17
 0.1063267845368419    1    1   18   18
 -0.001474942270465809    2    1    1    1
 0.0001101161281827414    2    1    2    1
 -0.002014139538922485    2    1    2    2
 7.164795836015359e-05    2    1    3    1
 1.457200874217761e-06    2    1    3    2
 -0.001521849401348476    2    1    3    3
 -5.158209481579083e-06    2    1    4    1
 6.417487208711227e-06    2    1    4    2
 4.234522738234907e-05    2    1    4    3
 -0.0005706562503946934    2    1    4    4
 1.272020364977289e-06    2    1    5    1
 1.736008340022628e-06    2    1    5    2
 1.016684169854482e-06    2    1    5    3
 -3.620768858343041e-07    2    1    5    4
 3.165897684114018e-06    2    1    5    5
 -8.403906858904778e-07    2    1    6    1
 -2.488758748512139e-06    2    1    6    2
 -3.706040234289212e-06    2    1    6    3
 -2.46162434621254e-07    2    1    6    4
 -2.504709698193199e-07    2    1    6    5
 -0.0001307447737773222    2    1    6    6
 -4.308714723780842e-06    2    1    7    1
 5.767334617712481e-06    2    1    7    2
 2.953097958950484e-06    2    1    7    3
 -7.336138702800058e-07    2    1    7    4
 1.772420492257478e-07    2    1    7    5
 -4.346544649388108e-08    2    1    7    6
 -0.0005954467095425259    2    1    7    7
 -2.825781605817736e-05    2    1    8    1
 -4.939855510802448e-07    2    1    8    2
 -5.111817825326301e-06    2    1    8    3
 3.64442459539862e-06    2    1    8    4
 1.713296827892587e-06    2    1    8    5
 -1.994144924644624e-06    2    1    8    6
 4.205997665101477e-07    2    1    8    7
 -1.798384211255024e-05    2    1    8    8
 2.083236284954004e-05    2    1    9    1
 -2.866770918430973e-05    2    1    9    2
 -1.694941352707616e-05    2    1    9    3
 6.437845046146413e-06    2    1    9    4
 -3.123807109524161e-07    2    1    9    5
 3.114648894363147e-07    2    1    9    6
 6.236549753649595e-06    2    1    9    7
 -1.26830815912757e-07    2    1    9    8
 -0.001355349990320754    2    1    9    9
 -0.0001928460087738335    2    1   10    1
 0.0002492423594785785    2    1   10    2
 -4.683431145676387e-05    2    1   10    3
 8.360006279245803e-06    2    1   10    4
 8.412597309308085e-07    2    1   10    5
 -4.276194522223602e-07    2    1   10    6
 9.063067792786116e-06    2    1   10    7
 4.67125962628702e-06    2    1   10    8
 -1.642864159585803e-05    2    1   10    9
 4.765710380274181e-05    2    1   10   10
 -1.316229725450465e-06    2    1   11    1
 4.854381114747032e-05    2    1   11    2
 2.175549851612624e-05    2    1   11    3
 -2.363703096462373e-06    2    1   11    4
 7.133313108807152e-07    2    1   11    5
 -2.020744935717515e-07    2    1   11    6
 -4.358760140707678e-05    2    1   11    7
 1.42486894288457e-06    2    1   11    8
 7.563953013646227e-06    2    1   11    9
 5.230389314187735e-05    2    1   11   10
 -0.001623989980775453    2    1   11   11
 6.624377767232516e-06    2    1   12    1
 1.360975784795779e-06    2    1   12    2
 -6.277238707398565e-07    2    1   12    3
 3.675521968480664e-08    2    1   12    4
 -2.053043490463392e-06    2    1   12    5
 -4.450088867639891e-07    2    1   12    6
 1.541776914720776e-07    2    1   12    7
 -5.873325717598557e-06    2    1   12    8
 -3.342986813612908e-08    2    1   12    9
 1.2640526856641e-06    2    1   12   10
 5.409447227268325e-07    2    1   12   11
 5.909514064301107e-05    2    1   12   12
 1.380835866890436e-07    2    1   13    1
 0.0001682041269981464    2    1   13    2
 2.692270272338584e-06    2    1   13    3
 -1.044549758079265e-06    2    1   13    4
 2.241969934482245e-08    2    1   13    5
 1.028296860306453e-07    2    1   13    6
 -5.735405043430363e-06    2    1   13    7
 7.948166207510628e-08    2    1   13    8
 4.777907629664067e-06    2    1   13    9
 1.237155155852473e-05    2    1   13   10
 2.303809294358285e-06    2    1   13   11
 6.820456253228047e-08    2    1   13   12
 0.0002439531340416486    2    1   13   13
 0.000147347345090442    2    1   14    1
 1.95409910224019e-06    2    1   14    2
 1.986146694824233e-06    2    1   14    3
 5.223283933744836e-06    2    1   14    4
 -4.621653471678635e-07    2    1   14    5
 -1.790597517163904e-06    2    1   14    6
 1.196350702309081e-06    2    1   14    7
 -1.750582273344893e-05    2    1   14    8
 -4.958278586584991e-06    2    1   14    9
 -1.465492955562194e-05    2    1   14   10
 3.227606882787243e-06    2    1   14   11
 -4.902084441347321e-06    2    1   14   12
 1.209490378931947e-06    2    1   14   13
 0.0003320587637800363    2    1   14   14
 4.614949758322016e-06    2    1   15    1
 3.033985299899335e-06    2    1   15    2
 4.815491578859685e-07    2    1   15    3
 9.904071013527387e-07    2    1   15    4
 4.000701377531346e-07    2    1   15    5
 -1.957375075980855e-06    2    1   15    6
 8.985276757873953e-08    2    1   15    7
 -4.465360890660052e-07    2    1   15    8
 -4.002129302968162e-07    2    1   15    9
 6.588456809666641e-07    2    1   15   10
 3.907568755834399e-07    2    1   15   11
 4.550368992859121e-07    2    1   15   12
 -5.37210400363179e-08    2    1   15   13
 2.665667047947763e-07    2    1   15   14
 -5.131401302052195e-05    2    1   15   15
 -5.00180040028898e-06    2    1   16    1
 7.419425123109547e-07    2    1   16    2
 -2.675823518309307e-07    2    1   16    3
 1.083590627505976e-07    2    1   16    4
 1.071438457844726e-08    2    1   16    5
 4.064902788456139e-08    2    1   16    6
 6.84550251962853e-06    2    1   16    7
 1.039451628133205e-07    2    1   16    8
 -1.160876440275637e-06    2    1   16    9
 6.494026350511693e-07    2    1   16   10
 2.883407683235481e-06    2    1   16   11
 8.100022352766211e-09    2    1   16   12
 -6.14863919463819e-06    2    1   16   13
 1.272264078124486e-07    2    1   16   14
 -4.544950715647926e-08    2    1   16   15
 -0.0002653087916100237    2    1   16   16
 -2.906654477143928e-06    2    1   17    1
 6.328259077263986e-06    2    1   17    2
 -2.929141846963656e-06    2    1   17    3
 6.461844435052954e-06    2    1   17    4
 7.849575885911728e-07    2    1   17    5
 4.158027979570798e-06    2    1   17    6
 7.911774921860943e-08    2    1   17    7
 5.71950104279969e-06    2    1   17    8
 -1.214722750164922e-06    2    1   17    9
 1.131041563916846e-07    2    1   17   10
 4.313418939127607e-07    2    1   17   11
 9.062866560919683e-08    2    1   17   12
 -1.675423267191814e-07    2    1   17   13
 4.381543142249717e-06    2    1   17   14
 -8.175755245219012e-07    2    1   17   15
 -1.657195991938924e-07    2    1   17   16
 -0.0002463002727144218    2    1   17   17
 -2.868564421943844e-07    2    1   18    1
 -2.762826541684095e-05    2    1   18    2
 9.645151411931239e-07    2    1   18    3
 -4.511467504911031e-07    2    1   18    4
 -6.864004666694204e-08    2    1   18    5
 7.481492012209578e-08    2    1   18    6
 -4.285435770598998e-06    2    1   18    7
 -1.210319629995635e-07    2    1   18    8
 3.927512319707814e-07    2    1   18    9
 -4.835796830496349e-06    2    1   18   10
 -4.176605920515552e-06    2    1   18   11
 -2.800396875963172e-08    2    1   18   12
 -1.335914596805768e-05    2    1   18   13
 1.080988441291968e-07    2    1   18   14
 -4.510333086134067e-08    2    1   18   15
 -5.865788021345477e-06    2    1   18   16
 -4.346884233232606e-08    2    1   18   17
 -3.822297953826447e-05    2    1   18   18
 0.2049699074456817    2    2    1    1
 -0.002014139538922514    2    2    2    1
 0.6285932864629243    2    2    2    2
 -0.0008482514243995314    2    2    3    1
 -0.0009776813429313656    2    2    3    2
 0.1783935910317816    2    2    3    3
 0.0004912447253178374    2    2    4    1
 -0.0001344621019135725    2    2    4    2
 -0.001614302281561373    2    2    4    3
 0.1217476367106301    2    2    4    4
 -3.799311591268784e-06    2    2    5    1
 -0.0001478109094341554    2    2    5    2
 -2.872826511117842e-05    2    2    5    3
 1.830639002028986e-05    2    2    5    4
 0.07156880332480414    2    2    5    5
 -5.182622587667616e-05    2    2    6    1
 0.0001535075524838767    2    2    6    2
 0.0001378286723841278    2    2    6    3
 -0.0001350291388857984    2    2    6    4
 0.0001684159409174677    2    2    6    5
 0.0805434297936586    2    2    6    6
 0.0001589898218929568    2    2    7    1
 0.001097367641198099    2    2    7    2
 -0.0002632873256132157    2    2    7    3
 5.283745939746803e-05    2    2    7    4
 -1.946629783293165e-05    2    2    7    5
 9.929608492172381e-06    2    2    7    6
 0.2002008828609212    2    2    7    7
 1.798384346872283e-05    2    2    8    1
 6.866259627009023e-06    2    2    8    2
 4.776434690329241e-05    2    2    8    3
 -0.0004174330869765169    2    2    8    4
 8.678089846185188e-06    2    2    8    5
 0.0001961400245162469    2    2    8    6
 -4.495256485185758e-05    2    2    8    7
 0.1068009451982454    2    2    8    8
 -0.001279533706151744    2    2    9    1
 0.001920764082590326    2    2    9    2
 0.0007089610543472747    2    2    9    3
 -0.0005664068011884219    2    2    9    4
 -7.453471890800457e-08    2    2    9    5
 -6.720205931253309e-06    2    2    9    6
 -0.0009847775878307533    2    2    9    7
 -1.362938607698881e-05    2    2    9    8
 0.2024284600887614    2    2    9    9
 0.002769442520678625    2    2   10    1
 -0.00550827763890872    2    2   10    2
 0.001678987244309495    2    2   10    3
 2.101442528959772e-05    2    2   10    4
 -3.640924390830277e-05    2    2   10    5
 -7.659641226040238e-05    2    2   10    6
 -0.000385741907548447    2    2   10    7
 -0.0004824823468096289    2    2   10    8
 0.0005316285891901563    2    2   10    9
 0.3251668278066813    2    2   10   10
 0.0001959156175666333    2    2   11    1
 0.004330072999824247    2    2   11    2
 -0.001623989981248743    2    2   11    3
 -0.0001118190177640076    2    2   11    4
 -7.205940326228676e-05    2    2   11    5
 5.053851815678805e-05    2    2   11    6
 0.002060213785851342    2    2   11    7
 -0.0001233882492585628    2    2   11    8
 0.002641798809782563    2    2   11    9
 0.0002436436945577822    2    2   11   10
 0.3179871636471764    2    2   11   11
 -0.0002081462074324677    2    2   12    1
 -0.0001444394818239178    2    2   12    2
 1.402277456952512e-05    2    2   12    3
 -3.62249571753659e-05    2    2   12    4
 -0.000192229605123379    2    2   12    5
 7.173800950707519e-05    2    2   12    6
 -1.967382141397781e-05    2    2   12    7
 0.0003411680158678038    2    2   12    8
 -5.972757739092562e-06    2    2   12    9
 -9.560826806227596e-05    2    2   12   10
 -5.12935279805072e-05    2    2   12   11
 0.08475866041496932    2    2   12   12
 0.0005025239847632621    2    2   13    1
 -0.003888501547543402    2    2   13    2
 -0.0001360499034877078    2    2   13    3
 0.0001177205344532463    2    2   13    4
 4.168376474660402e-05    2    2   13    5
 -4.051452431530799e-05    2    2   13    6
 0.0007448870473374127    2    2   13    7
 7.864287583943828e-05    2    2   13    8
 -0.0004781108793526593    2    2   13    9
 -0.0006166442559385688    2    2   13   10
 0.0008254332604077429    2    2   13   11
 3.638044776041466e-05    2    2   13   12
 0.3168760807390971    2    2   13   13
 -0.0018008866120672    2    2   14    1
 -0.0008956614683449572    2    2   14    2
 0.0006654998606367743    2    2   14    3
 -0.0001814797652453873    2    2   14    4
 -6.99717656995234e-05    2    2   14    5
 9.570985929496469e-06    2    2   14    6
 -0.0001002833783528072    2    2   14    7
 -0.0005898497124362102    2    2   14    8
 0.0001622087080203439    2    2   14    9
 0.0001647528307827467    2    2   14   10
 -0.0002214994838192776    2    2   14   11
 4.373993005828846e-05    2    2   14   12
 1.254911317550471e-05    2    2   14   13
 0.1380152108425028    2    2   14   14
 -2.420245667093138e-05    2    2   15    1
 -0.0002571669195700781    2    2   15    2
 -8.26652120101224e-06    2    2   15    3
 -4.657733394252712e-05    2    2   15    4
 -3.047544136793009e-05    2    2   15    5
 0.0001203433109958506    2    2   15    6
 -1.462443645053839e-05    2    2   15    7
 -2.449687630655557e-05    2    2   15    8
 1.36394181201592e-05    2    2   15    9
 3.563423293957513e-05    2    2   15   10
 -6.708271528874111e-05    2    2   15   11
 -0.0001596475708598554    2    2   15   12
 5.358316358343082e-05    2    2   15   13
 3.2958866295249e-05    2    2   15   14
 0.07021422090817929    2    2   15   15
 3.343143774297128e-05    2    2   16    1
 -0.0007230464527254203    2    2   16    2
 -1.610830048012711e-06    2    2   16    3
 -5.999466819738106e-06    2    2   16    4
 -9.327886469141249e-06    2    2   16    5
 1.469987109814803e-06    2    2   16    6
 0.0003609964566129591    2    2   16    7
 -1.322429855023315e-05    2    2   16    8
 -0.0001561756121817515    2    2   16    9
 -0.0002700107733341754    2    2   16   10
 -0.001418440047272999    2    2   16   11
 -9.96987033258634e-06    2    2   16   12
 0.001762183336800034    2    2   16   13
 -4.699239161414165e-05    2    2   16   14
 -3.544092423563559e-06    2    2   16   15
 0.1771353651327551    2    2   16   16
 0.0001880458990678768    2    2   17    1
 -0.0005307002245667212    2    2   17    2
 0.0002463002714588195    2    2   17    3
 -0.000178424652907792    2    2   17    4
 -7.607967743966096e-07    2    2   17    5
 -0.0003789277849966235    2    2   17    6
 -3.042596650894928e-05    2    2   17    7
 -0.0001428665728291402    2    2   17    8
 0.0001137053834228974    2    2   17    9
 0.0001204491399858589    2    2   17   10
 -5.628766423608803e-05    2    2   17   11
 -0.0002345799039246985    2    2   17   12
 0.0001256531413257772    2    2   17   13
 -0.0004145008821914357    2    2   17   14
 -4.418740032209991e-05    2    2   17   15
 2.684317480525745e-06    2    2   17   16
 0.1024700083627872    2    2   17   17
 -1.410074252699103e-05    2    2   18    1
 0.001124709513099467    2    2   18    2
 -7.889738598231162e-05    2    2   18    3
 4.447763047818942e-05    2    2   18    4
 -5.326048651522721e-06    2    2   18    5
 -6.655552681104492e-06    2    2   18    6
 0.001298909870610016    2    2   18    7
 -2.002127131386645e-05    2    2   18    8
 -0.0002233922692239043    2    2   18    9
 -0.0002375654229574732    2    2   18   10
 -0.000455294139789023    2    2   18   11
 -7.28732038993458e-06    2    2   18   12
 -0.003145976342266668    2    2   18   13
 -1.914540121403387e-05    2    2   18   14
 5.786446440245803e-06    2    2   18   15
 0.0007030873310901273    2    2   18   16
 1.045900314962443e-05    2    2   18   17
 0.2034883119113131    2    2   18   18
 0.004301656147246673    3    1    1    1
 7.164795836015508e-05    3    1    2    1
 -0.0008482514243994967    3    1    2    2
 0.00395480359227962    3    1    3    1
 -6.415603581397445e-05    3    1    3    2
 0.004301656073350366    3    1    3    3
 -0.0002039711793050891    3    1    4    1
 9.178863967242181e-06    3    1    4    2
 7.316035363541828e-05    3    1    4    3
 0.002327046073634671    3    1    4    4
 -3.669927994458187e-07    3    1    5    1
 5.779974336537258e-07    3    1    5    2
 -1.92305521359605e-05    3    1    5    3
 3.344418721719349e-06    3    1    5    4
 -0.0001722011697132145    3    1    5    5
 -1.412311567393862e-06    3    1    6    1
 -1.138049138356526e-06    3    1    6    2
 3.682537427984711e-05    3    1    6    3
 5.11588537958808e-05    3    1    6    4
 -2.600574945962319e-06    3    1    6    5
 -0.0001693853722587722    3    1    6    6
 -1.412311495971944e-06    3    1    7    1
 1.529770216087463e-05    3    1    7    2
 3.682537436443352e-05    3    1    7    3
 -8.429385490951665e-06    3    1    7    4
 1.049547340955252e-08    3    1    7    5
 3.528997093598147e-07    3    1    7    6
 -0.0001693853724152419    3    1    7    7
 -7.164795839157153e-05    3    1    8    1
 -2.037824394078077e-06    3    1    8    2
 6.415603572845528e-05    3    1    8    3
 6.048340087807696e-06    3    1    8    4
 5.257351814013182e-06    3    1    8    5
 -1.529770217083867e-05    3    1    8    6
 1.138049135971683e-06    3    1    8    7
 -0.00084825142412191    3    1    8    8
 -0.000203971179669178    3    1    9    1
 -6.04834014252272e-06    3    1    9    2
 7.316035347402298e-05    3    1    9    3
 0.0001193346197791231    3    1    9    4
 2.799716424463609e-06    3    1    9    5
 -8.429385498976445e-06    3    1    9    6
 5.11588537891872e-05    3    1    9    7
 -9.178863970112572e-06    3    1    9    8
 0.00232704607328085    3    1    9    9
 -7.31603529677288e-05    3    1   10    1
 -0.0003259399687591396    3    1   10    2
 0.0002039711793235217    3    1   10    3
 2.46279197371402e-05    3    1   10    4
 -3.334226951370948e-06    3    1   10    5
 -2.02269852066358e-06    3    1   10    6
 1.660431070994636e-05    3    1   10    7
 -6.311838042638139e-06    3    1   10    8
 -6.653960875540066e-05    3    1   10    9
 0.002327046102653327    3    1   10   10
 -6.415603609361968e-05    3    1   11    1
 0.0001336259489249896    3    1   11    2
 7.164795834811853e-05    3    1   11    3
 -6.31183813050207e-06    3    1   11    4
 9.295255429550359e-07    3    1   11    5
 -4.738536360404429e-08    3    1   11    6
 -4.068710239572657e-05    3    1   11    7
 1.621927683577671e-06    3    1   11    8
 0.0003259399679578046    3    1   11    9
 6.048339963277965e-06    3    1   11   10
 -0.0008482514308757231    3    1   11   11
 -3.682537459278703e-05    3    1   12    1
 4.73853696098019e-08    3    1   12    2
 1.412311407469118e-06    3    1   12    3
 1.660431066039415e-05    3    1   12    4
 -7.120441319311096e-06    3    1   12    5
 -5.363720772478747e-06    3    1   12    6
 2.985059599135831e-07    3    1   12    7
 -4.068710232206353e-05    3    1   12    8
 -2.022698514399543e-06    3    1   12    9
 -8.429385521085807e-06    3    1   12   10
 1.138049135455849e-06    3    1   12   11
 -0.000169385368376513    3    1   12   12
 -3.682537457904707e-05    3    1   13    1
 4.06871023787849e-05    3    1   13    2
 1.412311438892826e-06    3    1   13    3
 -2.022698522925605e-06    3    1   13    4
 3.098780306732311e-09    3    1   13    5
 2.985059607045354e-07    3    1   13    6
 -5.363720772701495e-06    3    1   13    7
 -4.738536709082022e-08    3    1   13    8
 1.660431066477579e-05    3    1   13    9
 5.115885391668119e-05    3    1   13   10
 -1.529770212535073e-05    3    1   13   11
 3.528997102594888e-07    3    1   13   12
 -0.0001693853684848649    3    1   13   13
 7.31603530501998e-05    3    1   14    1
 -6.311838106398949e-06    3    1   14    2
 -0.0002039711791707694    3    1   14    3
 6.653960872646642e-05    3    1   14    4
 -1.207115591962511e-05    3    1   14    5
 -1.660431067022409e-05    3    1   14    6
 2.022698524035169e-06    3    1   14    7
 -0.0003259399688211476    3    1   14    8
 -2.462791973041694e-05    3    1   14    9
 -0.0001193346198427279    3    1   14   10
 9.178863946343269e-06    3    1   14   11
 -5.115885388559774e-05    3    1   14   12
 8.429385506420869e-06    3    1   14   13
 0.002327046102870006    3    1   14   14
 -1.923055227418857e-05    3    1   15    1
 9.295255451968468e-07    3    1   15    2
 -3.669928661123602e-07    3    1   15    3
 -1.207115587255733e-05    3    1   15    4
 5.626279641188677e-06    3    1   15    5
 7.120441224319206e-06    3    1   15    6
 -3.098780763591219e-09    3    1   15    7
 8.145203693018624e-07    3    1   15    8
 3.334226937126791e-06    3    1   15    9
 -2.799716447205996e-06    3    1   15   10
 5.779974294858383e-07    3    1   15   11
 2.600574946545219e-06    3    1   15   12
 -1.049547150956891e-08    3    1   15   13
 3.344418754714426e-06    3    1   15   14
 -0.0001722011707572135    3    1   15   15
 1.923055224019426e-05    3    1   16    1
 8.145203655670665e-07    3    1   16    2
 3.66992829388083e-07    3    1   16    3
 -3.334226937231176e-06    3    1   16    4
 2.985291921651696e-08    3    1   16    5
 3.098780523128673e-09    3    1   16    6
 -7.120441221168337e-06    3    1   16    7
 9.295255456605363e-07    3    1   16    8
 1.207115586504455e-05    3    1   16    9
 3.344418745925872e-06    3    1   16   10
 5.25735176456025e-06    3    1   16   11
 1.049547158517522e-08    3    1   16   12
 -2.60057494780197e-06    3    1   16   13
 -2.799716443923338e-06    3    1   16   14
 -3.032843077606572e-09    3    1   16   15
 -0.0001722011708475143    3    1   16   16
 6.415603595238313e-05    3    1   17    1
 1.621927687449189e-06    3    1   17    2
 -7.164795845316759e-05    3    1   17    3
 -0.0003259399679310206    3    1   17    4
 8.145203970913014e-07    3    1   17    5
 4.068710240567161e-05    3    1   17    6
 4.738536169136831e-08    3    1   17    7
 0.0001336259489427902    3    1   17    8
 6.311838129534858e-06    3    1   17    9
 9.178863944014315e-06    3    1   17   10
 -2.037824387343943e-06    3    1   17   11
 1.529770212193595e-05    3    1   17   12
 -1.138049136226831e-06    3    1   17   13
 6.048339961214169e-06    3    1   17   14
 5.257351755021926e-06    3    1   17   15
 5.779974289185041e-07    3    1   17   16
 -0.0008482514305371074    3    1   17   17
 -3.669928032208813e-07    3    1   18    1
 -5.257351815327374e-06    3    1   18    2
 -1.923055213835688e-05    3    1   18    3
 2.799716422902984e-06    3    1   18    4
 3.032841138867085e-09    3    1   18    5
 1.049547360649805e-08    3    1   18    6
 -2.600574947107923e-06    3    1   18    7
 -5.779974336977112e-07    3    1   18    8
 3.344418726585119e-06    3    1   18    9
 1.207115592750092e-05    3    1   18   10
 -8.145204082250278e-07    3    1   18   11
 3.098780277943502e-09    3    1   18   12
 -7.120441318535076e-06    3    1   18   13
 3.334226952395506e-06    3    1   18   14
 -2.985291918813038e-08    3    1   18   15
 -5.626279641249693e-06    3    1   18   16
 -9.295255421800454e-07    3    1   18   17
 -0.0001722011697871029    3    1   18   18
 0.0003207861099871894    3    2    1    1
 1.457200874217764e-06    3    2    2    1
 -0.0009776813429313636    3    2    2    2
 -6.415603581397486e-05    3    2    3    1
 1.993704423498409e-05    3    2    3    2
 -0.0009585429845840777    3    2    3    3
 6.727152680789637e-06    3    2    4    1
 -2.219421020567287e-06    3    2    4    2