[Molden Format]
made by pyscf v[2.0.1]
[Atoms] (AU)
C   1   6     2.65527474609200     6.99295716670100     0.00000000000000
C   2   6     1.36293650781400     4.60945461241000     0.00000000000000
C   3   6     2.64522049959100     2.32844339311600     0.00000000000000
C   4   6     1.36109054637300     0.00000000000000     0.00000000000000
C   5   6     1.35254544726900     9.20289291228100     0.00000000000000
H   6   1     4.70827624184100     6.98515115669500     0.00000000000000
H   7   1     4.69969836234300     2.32764294256900     0.00000000000000
H   8   1     2.35440258195100    10.99292763427100     0.00000000000000
C   9   6     2.65527474609200    -6.99295716670100     0.00000000000000
C   10   6     1.36293650781400    -4.60945461241000     0.00000000000000
C   11   6     2.64522049959100    -2.32844339311600     0.00000000000000
C   12   6     1.35254544726900    -9.20289291228100     0.00000000000000
H   13   1     4.70827624184100    -6.98515115669500     0.00000000000000
H   14   1     4.69969836234300    -2.32764294256900     0.00000000000000
H   15   1     2.35440258195100   -10.99292763427100     0.00000000000000
C   16   6    -2.65527474609200     6.99295716670100     0.00000000000000
C   17   6    -1.36293650781400     4.60945461241000     0.00000000000000
C   18   6    -2.64522049959100     2.32844339311600     0.00000000000000
C   19   6    -1.36109054637300     0.00000000000000     0.00000000000000
C   20   6    -1.35254544726900     9.20289291228100     0.00000000000000
H   21   1    -4.70827624184100     6.98515115669500     0.00000000000000
H   22   1    -4.69969836234300     2.32764294256900     0.00000000000000
H   23   1    -2.35440258195100    10.99292763427100     0.00000000000000
C   24   6    -2.65527474609200    -6.99295716670100     0.00000000000000
C   25   6    -1.36293650781400    -4.60945461241000     0.00000000000000
C   26   6    -2.64522049959100    -2.32844339311600     0.00000000000000
C   27   6    -1.35254544726900    -9.20289291228100     0.00000000000000
H   28   1    -4.70827624184100    -6.98515115669500     0.00000000000000
H   29   1    -4.69969836234300    -2.32764294256900     0.00000000000000
H   30   1    -2.35440258195100   -10.99292763427100     0.00000000000000
[GTO]
1 0
 s    6 1.00
             3047.5249  0.0018347001629433
             457.36951    0.01403730124668
             103.94869   0.068842606114048
             29.210155    0.23218442062076
              9.286663    0.46794134155879
              3.163927    0.36231203217765
 s    3 1.00
             7.8682724   -0.11933240861517
             1.8812885   -0.16085421161283
             0.5442493     1.1434564825515
 s    1 1.00
             0.1687144                   1
 p    3 1.00
             7.8682724   0.068999095584993
             1.8812885    0.31642397975315
             0.5442493    0.74430825237435
 p    1 1.00
             0.1687144                   1

2 0
 s    6 1.00
             3047.5249  0.0018347001629433
             457.36951    0.01403730124668
             103.94869   0.068842606114048
             29.210155    0.23218442062076
              9.286663    0.46794134155879
              3.163927    0.36231203217765
 s    3 1.00
             7.8682724   -0.11933240861517
             1.8812885   -0.16085421161283
             0.5442493     1.1434564825515
 s    1 1.00
             0.1687144                   1
 p    3 1.00
             7.8682724   0.068999095584993
             1.8812885    0.31642397975315
             0.5442493    0.74430825237435
 p    1 1.00
             0.1687144                   1

3 0
 s    6 1.00
             3047.5249  0.0018347001629433
             457.36951    0.01403730124668
             103.94869   0.068842606114048
             29.210155    0.23218442062076
              9.286663    0.46794134155879
              3.163927    0.36231203217765
 s    3 1.00
             7.8682724   -0.11933240861517
             1.8812885   -0.16085421161283
             0.5442493     1.1434564825515
 s    1 1.00
             0.1687144                   1
 p    3 1.00
             7.8682724   0.068999095584993
             1.8812885    0.31642397975315
             0.5442493    0.74430825237435
 p    1 1.00
             0.1687144                   1

4 0
 s    6 1.00
             3047.5249  0.0018347001629433
             457.36951    0.01403730124668
             103.94869   0.068842606114048
             29.210155    0.23218442062076
              9.286663    0.46794134155879
              3.163927    0.36231203217765
 s    3 1.00
             7.8682724   -0.11933240861517
             1.8812885   -0.16085421161283
             0.5442493     1.1434564825515
 s    1 1.00
             0.1687144                   1
 p    3 1.00
             7.8682724   0.068999095584993
             1.8812885    0.31642397975315
             0.5442493    0.74430825237435
 p    1 1.00
             0.1687144                   1

5 0
 s    6 1.00
             3047.5249  0.0018347001629433
             457.36951    0.01403730124668
             103.94869   0.068842606114048
             29.210155    0.23218442062076
              9.286663    0.46794134155879
              3.163927    0.36231203217765
 s    3 1.00
             7.8682724   -0.11933240861517
             1.8812885   -0.16085421161283
             0.5442493     1.1434564825515
 s    1 1.00
             0.1687144                   1
 p    3 1.00
             7.8682724   0.068999095584993
             1.8812885    0.31642397975315
             0.5442493    0.74430825237435
 p    1 1.00
             0.1687144                   1

6 0
 s    3 1.00
             18.731137    0.03349459952309
             2.8253937    0.23472694665786
             0.6401217    0.81375731841339
 s    1 1.00
             0.1612778                   1

7 0
 s    3 1.00
             18.731137    0.03349459952309
             2.8253937    0.23472694665786
             0.6401217    0.81375731841339
 s    1 1.00
             0.1612778                   1

8 0
 s    3 1.00
             18.731137    0.03349459952309
             2.8253937    0.23472694665786
             0.6401217    0.81375731841339
 s    1 1.00
             0.1612778                   1

9 0
 s    6 1.00
             3047.5249  0.0018347001629433
             457.36951    0.01403730124668
             103.94869   0.068842606114048
             29.210155    0.23218442062076
              9.286663    0.46794134155879
              3.163927    0.36231203217765
 s    3 1.00
             7.8682724   -0.11933240861517
             1.8812885   -0.16085421161283
             0.5442493     1.1434564825515
 s    1 1.00
             0.1687144                   1
 p    3 1.00
             7.8682724   0.068999095584993
             1.8812885    0.31642397975315
             0.5442493    0.74430825237435
 p    1 1.00
             0.1687144                   1

10 0
 s    6 1.00
             3047.5249  0.0018347001629433
             457.36951    0.01403730124668
             103.94869   0.068842606114048
             29.210155    0.23218442062076
              9.286663    0.46794134155879
              3.163927    0.36231203217765
 s    3 1.00
             7.8682724   -0.11933240861517
             1.8812885   -0.16085421161283
             0.5442493     1.1434564825515
 s    1 1.00
             0.1687144                   1
 p    3 1.00
             7.8682724   0.068999095584993
             1.8812885    0.31642397975315
             0.5442493    0.74430825237435
 p    1 1.00
             0.1687144                   1

11 0
 s    6 1.00
             3047.5249  0.0018347001629433
             457.36951    0.01403730124668
             103.94869   0.068842606114048
             29.210155    0.23218442062076
              9.286663    0.46794134155879
              3.163927    0.36231203217765
 s    3 1.00
             7.8682724   -0.11933240861517
             1.8812885   -0.16085421161283
             0.5442493     1.1434564825515
 s    1 1.00
             0.1687144                   1
 p    3 1.00
             7.8682724   0.068999095584993
             1.8812885    0.31642397975315
             0.5442493    0.74430825237435
 p    1 1.00
             0.1687144                   1

12 0
 s    6 1.00
             3047.5249  0.0018347001629433
             457.36951    0.01403730124668
             103.94869   0.068842606114048
             29.210155    0.23218442062076
              9.286663    0.46794134155879
              3.163927    0.36231203217765
 s    3 1.00
             7.8682724   -0.11933240861517
             1.8812885   -0.16085421161283
             0.5442493     1.1434564825515
 s    1 1.00
             0.1687144                   1
 p    3 1.00
             7.8682724   0.068999095584993
             1.8812885    0.31642397975315
             0.5442493    0.74430825237435
 p    1 1.00
             0.1687144                   1

13 0
 s    3 1.00
             18.731137    0.03349459952309
             2.8253937    0.23472694665786
             0.6401217    0.81375731841339
 s    1 1.00
             0.1612778                   1

14 0
 s    3 1.00
             18.731137    0.03349459952309
             2.8253937    0.23472694665786
             0.6401217    0.81375731841339
 s    1 1.00
             0.1612778                   1

15 0
 s    3 1.00
             18.731137    0.03349459952309
             2.8253937    0.23472694665786
             0.6401217    0.81375731841339
 s    1 1.00
             0.1612778                   1

16 0
 s    6 1.00
             3047.5249  0.0018347001629433
             457.36951    0.01403730124668
             103.94869   0.068842606114048
             29.210155    0.23218442062076
              9.286663    0.46794134155879
              3.163927    0.36231203217765
 s    3 1.00
             7.8682724   -0.11933240861517
             1.8812885   -0.16085421161283
             0.5442493     1.1434564825515
 s    1 1.00
             0.1687144                   1
 p    3 1.00
             7.8682724   0.068999095584993
             1.8812885    0.31642397975315
             0.5442493    0.74430825237435
 p    1 1.00
             0.1687144                   1

17 0
 s    6 1.00
             3047.5249  0.0018347001629433
             457.36951    0.01403730124668
             103.94869   0.068842606114048
             29.210155    0.23218442062076
              9.286663    0.46794134155879
              3.163927    0.36231203217765
 s    3 1.00
             7.8682724   -0.11933240861517
             1.8812885   -0.16085421161283
             0.5442493     1.1434564825515
 s    1 1.00
             0.1687144                   1
 p    3 1.00
             7.8682724   0.068999095584993
             1.8812885    0.31642397975315
             0.5442493    0.74430825237435
 p    1 1.00
             0.1687144                   1

18 0
 s    6 1.00
             3047.5249  0.0018347001629433
             457.36951    0.01403730124668
             103.94869   0.068842606114048
             29.210155    0.23218442062076
              9.286663    0.46794134155879
              3.163927    0.36231203217765
 s    3 1.00
             7.8682724   -0.11933240861517
             1.8812885   -0.16085421161283
             0.5442493     1.1434564825515
 s    1 1.00
             0.1687144                   1
 p    3 1.00
             7.8682724   0.068999095584993
             1.8812885    0.31642397975315
             0.5442493    0.74430825237435
 p    1 1.00
             0.1687144                   1

19 0
 s    6 1.00
             3047.5249  0.0018347001629433
             457.36951    0.01403730124668
             103.94869   0.068842606114048
             29.210155    0.23218442062076
              9.286663    0.46794134155879
              3.163927    0.36231203217765
 s    3 1.00
             7.8682724   -0.11933240861517
             1.8812885   -0.16085421161283
             0.5442493     1.1434564825515
 s    1 1.00
             0.1687144                   1
 p    3 1.00
             7.8682724   0.068999095584993
             1.8812885    0.31642397975315
             0.5442493    0.74430825237435
 p    1 1.00
             0.1687144                   1

20 0
 s    6 1.00
             3047.5249  0.0018347001629433
             457.36951    0.01403730124668
             103.94869   0.068842606114048
             29.210155    0.23218442062076
              9.286663    0.46794134155879
              3.163927    0.36231203217765
 s    3 1.00
             7.8682724   -0.11933240861517
             1.8812885   -0.16085421161283
             0.5442493     1.1434564825515
 s    1 1.00
             0.1687144                   1
 p    3 1.00
             7.8682724   0.068999095584993
             1.8812885    0.31642397975315
             0.5442493    0.74430825237435
 p    1 1.00
             0.1687144                   1

21 0
 s    3 1.00
             18.731137    0.03349459952309
             2.8253937    0.23472694665786
             0.6401217    0.81375731841339
 s    1 1.00
             0.1612778                   1

22 0
 s    3 1.00
             18.731137    0.03349459952309
             2.8253937    0.23472694665786
             0.6401217    0.81375731841339
 s    1 1.00
             0.1612778                   1

23 0
 s    3 1.00
             18.731137    0.03349459952309
             2.8253937    0.23472694665786
             0.6401217    0.81375731841339
 s    1 1.00
             0.1612778                   1

24 0
 s    6 1.00
             3047.5249  0.0018347001629433
             457.36951    0.01403730124668
             103.94869   0.068842606114048
             29.210155    0.23218442062076
              9.286663    0.46794134155879
              3.163927    0.36231203217765
 s    3 1.00
             7.8682724   -0.11933240861517
             1.8812885   -0.16085421161283
             0.5442493     1.1434564825515
 s    1 1.00
             0.1687144                   1
 p    3 1.00
             7.8682724   0.068999095584993
             1.8812885    0.31642397975315
             0.5442493    0.74430825237435
 p    1 1.00
             0.1687144                   1

25 0
 s    6 1.00
             3047.5249  0.0018347001629433
             457.36951    0.01403730124668
             103.94869   0.068842606114048
             29.210155    0.23218442062076
              9.286663    0.46794134155879
              3.163927    0.36231203217765
 s    3 1.00
             7.8682724   -0.11933240861517
             1.8812885   -0.16085421161283
             0.5442493     1.1434564825515
 s    1 1.00
             0.1687144                   1
 p    3 1.00
             7.8682724   0.068999095584993
             1.8812885    0.31642397975315
             0.5442493    0.74430825237435
 p    1 1.00
             0.1687144                   1

26 0
 s    6 1.00
             3047.5249  0.0018347001629433
             457.36951    0.01403730124668
             103.94869   0.068842606114048
             29.210155    0.23218442062076
              9.286663    0.46794134155879
              3.163927    0.36231203217765
 s    3 1.00
             7.8682724   -0.11933240861517
             1.8812885   -0.16085421161283
             0.5442493     1.1434564825515
 s    1 1.00
             0.1687144                   1
 p    3 1.00
             7.8682724   0.068999095584993
             1.8812885    0.31642397975315
             0.5442493    0.74430825237435
 p    1 1.00
             0.1687144                   1

27 0
 s    6 1.00
             3047.5249  0.0018347001629433
             457.36951    0.01403730124668
             103.94869   0.068842606114048
             29.210155    0.23218442062076
              9.286663    0.46794134155879
              3.163927    0.36231203217765
 s    3 1.00
             7.8682724   -0.11933240861517
             1.8812885   -0.16085421161283
             0.5442493     1.1434564825515
 s    1 1.00
             0.1687144                   1
 p    3 1.00
             7.8682724   0.068999095584993
             1.8812885    0.31642397975315
             0.5442493    0.74430825237435
 p    1 1.00
             0.1687144                   1

28 0
 s    3 1.00
             18.731137    0.03349459952309
             2.8253937    0.23472694665786
             0.6401217    0.81375731841339
 s    1 1.00
             0.1612778                   1

29 0
 s    3 1.00
             18.731137    0.03349459952309
             2.8253937    0.23472694665786
             0.6401217    0.81375731841339
 s    1 1.00
             0.1612778                   1

30 0
 s    3 1.00
             18.731137    0.03349459952309
             2.8253937    0.23472694665786
             0.6401217    0.81375731841339
 s    1 1.00
             0.1612778                   1

[5d]
[7f]
[9g]

[MO]
 Sym= A
 Ene=               0
 Spin= Alpha
 Occup=    1.00000
   1                     0
   2                     0
   3                     0
   4                     0
   5                     0
   6    -0.0059354458968533
   7                     0
   8                     0
   9    -0.0012441139749352
  10                     0
  11                     0
  12                     0
  13                     0
  14                     0
  15    -0.019449748414538
  16                     0
  17                     0
  18     0.009423119509852
  19                     0
  20                     0
  21                     0
  22                     0
  23                     0
  24      0.10379817435968
  25                     0
  26                     0
  27      0.09798928120183
  28                     0
  29                     0
  30                     0
  31                     0
  32                     0
  33     -0.69799975238289
  34                     0
  35                     0
  36     -0.58938222411957
  37                     0
  38                     0
  39                     0
  40                     0
  41                     0
  42    0.0017055287182728
  43                     0
  44                     0
  45    0.00018443681550705
  46                     0
  47                     0
  48                     0
  49                     0
  50                     0
  51                     0
  52                     0
  53                     0
  54                     0
  55                     0
  56                     0
  57    -0.0059354458971588
  58                     0
  59                     0
  60    -0.0012441139758058
  61                     0
  62                     0
  63                     0
  64                     0
  65                     0
  66    -0.019449748411671
  67                     0
  68                     0
  69    0.0094231195105249
  70                     0
  71                     0
  72                     0
  73                     0
  74                     0
  75      0.10379817438422
  76                     0
  77                     0
  78     0.097989281221661
  79                     0
  80                     0
  81                     0
  82                     0
  83                     0
  84     0.001705528720247
  85                     0
  86                     0
  87    0.00018443681599271
  88                     0
  89                     0
  90                     0
  91                     0
  92                     0
  93                     0
  94                     0
  95                     0
  96                     0
  97                     0
  98                     0
  99    -0.00084991109021878
 100                     0
 101                     0
 102     0.002277019164296
 103                     0
 104                     0
 105                     0
 106                     0
 107                     0
 108    0.0044024598069254
 109                     0
 110                     0
 111    -0.0014793261167935
 112                     0
 113                     0
 114                     0
 115                     0
 116                     0
 117    -0.015766161707531
 118                     0
 119                     0
 120    -0.0034800238760718
 121                     0
 122                     0
 123                     0
 124                     0
 125                     0
 126     0.089556355357825
 127                     0
 128                     0
 129      0.11784741439955
 130                     0
 131                     0
 132                     0
 133                     0
 134                     0
 135    0.0039037729585338
 136                     0
 137                     0
 138    -0.0056338192463818
 139                     0
 140                     0
 141                     0
 142                     0
 143                     0
 144                     0
 145                     0
 146                     0
 147                     0
 148                     0
 149                     0
 150    -0.00084991108795043
 151                     0
 152                     0
 153    0.0022770191654998
 154                     0
 155                     0
 156                     0
 157                     0
 158                     0
 159     0.004402459819937
 160                     0
 161                     0
 162    -0.0014793261065217
 163                     0
 164                     0
 165                     0
 166                     0
 167                     0
 168    -0.015766161723572
 169                     0
 170                     0
 171    -0.0034800238899714
 172                     0
 173                     0
 174                     0
 175                     0
 176                     0
 177     0.003903772954634
 178                     0
 179                     0
 180    -0.0056338192491561
 181                     0
 182                     0
 183                     0
 184                     0
 185                     0
 186                     0
 Sym= A
 Ene=               1
 Spin= Alpha
 Occup=    1.00000
   1                     0
   2                     0
   3                     0
   4                     0
   5                     0
   6    -0.089809322585383
   7                     0
   8                     0
   9     -0.10185916986162
  10                     0
  11                     0
  12                     0
  13                     0
  14                     0
  15      0.70085395019413
  16                     0
  17                     0
  18      0.58353158887069
  19                     0
  20                     0
  21                     0
  22                     0
  23                     0
  24     -0.11498713657809
  25                     0
  26                     0
  27    -0.091136180477315
  28                     0
  29                     0
  30                     0
  31                     0
  32                     0
  33     0.015214736220612
  34                     0
  35                     0
  36    -0.0059952972632761
  37                     0
  38                     0
  39                     0
  40                     0
  41                     0
  42     0.028612851787356
  43                     0
  44                     0
  45     -0.01456067448585
  46                     0
  47                     0
  48                     0
  49                     0
  50                     0
  51                     0
  52                     0
  53                     0
  54                     0
  55                     0
  56                     0
  57    -0.0011694189790789
  58                     0
  59                     0
  60    0.0019645330454341
  61                     0
  62                     0
  63                     0
  64                     0
  65                     0
  66    0.00026707283968055
  67                     0
  68                     0
  69    -0.0033395320472319
  70                     0
  71                     0
  72                     0
  73                     0
  74                     0
  75    0.0065732249586394
  76                     0
  77                     0
  78    0.00019549255367129
  79                     0
  80                     0
  81                     0
  82                     0
  83                     0
  84    -0.00058995414593657
  85                     0
  86                     0
  87    0.00071030388048702
  88                     0
  89                     0
  90                     0
  91                     0
  92                     0
  93                     0
  94                     0
  95                     0
  96                     0
  97                     0
  98                     0
  99    0.0091850214692029
 100                     0
 101                     0
 102     0.012538502633274
 103                     0
 104                     0
 105                     0
 106                     0
 107                     0
 108    -0.088869971235753
 109                     0
 110                     0
 111     -0.11667417681332
 112                     0
 113                     0
 114                     0
 115                     0
 116                     0
 117     0.020997088544557
 118                     0
 119                     0
 120    -0.0029491846056519
 121                     0
 122                     0
 123                     0
 124                     0
 125                     0
 126    -0.0038390621106397
 127                     0
 128                     0
 129    0.00061514454819167
 130                     0
 131                     0
 132                     0
 133                     0
 134                     0
 135    -0.0013881478777505
 136                     0
 137                     0
 138    -0.0039097916416307
 139                     0
 140                     0
 141                     0
 142                     0
 143                     0
 144                     0
 145                     0
 146                     0
 147                     0
 148                     0
 149                     0
 150    8.7061619666783e-05
 151                     0
 152                     0
 153    -0.0011837303554201
 154                     0
 155                     0
 156                     0
 157                     0
 158                     0
 159    -0.0036740844975455
 160                     0
 161                     0
 162     0.006250497995656
 163                     0
 164                     0
 165                     0
 166                     0
 167                     0
 168    -0.00061898036394038
 169                     0
 170                     0
 171    8.4751750175131e-05
 172                     0
 173                     0
 174                     0
 175                     0
 176                     0
 177    0.0018642328657839
 178                     0
 179                     0
 180    -0.0022554352505355
 181                     0
 182                     0
 183                     0
 184                     0
 185                     0
 186                     0
 Sym= A
 Ene=               2
 Spin= Alpha
 Occup=    1.00000
   1                     0
   2                     0
   3                     0
   4                     0
   5                     0
   6    0.00084991108825817
   7                     0
   8                     0
   9    -0.0022770191654337
  10                     0
  11                     0
  12                     0
  13                     0
  14                     0
  15    -0.0044024598087958
  16                     0
  17                     0
  18    0.0014793261214611
  19                     0
  20                     0
  21                     0
  22                     0
  23                     0
  24     0.015766161738644
  25                     0
  26                     0
  27    0.0034800239053857
  28                     0
  29                     0
  30                     0
  31                     0
  32                     0
  33    -0.089556355531867
  34                     0
  35                     0
  36       -0.117847414546
  37                     0
  38                     0
  39                     0
  40                     0
  41                     0
  42    -0.0039037729604247
  43                     0
  44                     0
  45    0.0056338192441669
  46                     0
  47                     0
  48                     0
  49                     0
  50                     0
  51                     0
  52                     0
  53                     0
  54                     0
  55                     0
  56                     0
  57    0.00084991109462042
  58                     0
  59                     0
  60    -0.0022770191594581
  61                     0
  62                     0
  63                     0
  64                     0
  65                     0
  66    -0.0044024598331669
  67                     0
  68                     0
  69    0.0014793261007808
  70                     0
  71                     0
  72                     0
  73                     0
  74                     0
  75     0.015766161751618
  76                     0
  77                     0
  78    0.0034800239170879
  79                     0
  80                     0
  81                     0
  82                     0
  83                     0
  84    -0.0039037729622151
  85                     0
  86                     0
  87    0.0056338192422969
  88                     0
  89                     0
  90                     0
  91                     0
  92                     0
  93                     0
  94                     0
  95                     0
  96                     0
  97                     0
  98                     0
  99    0.0059354458974386
 100                     0
 101                     0
 102    0.0012441139764784
 103                     0
 104                     0
 105                     0
 106                     0