 &FCI NORB=  15,NELEC=18,MS2=0,
  ORBSYM=1,1,1,1,1,1,1,1,1,1,1,1,1,1,1,
  ISYM=1,
 &END
 0.2560071469173582    1    1    1    1
 1.055383180452343e-06    1    1    2    1
 0.2323175750407181    1    1    2    2
 5.131800506456168e-06    1    1    3    1
 -3.780169254700377e-05    1    1    3    2
 0.25389736062758    1    1    3    3
 -8.263359143140837e-07    1    1    4    1
 -1.707354062498073e-06    1    1    4    2
 -2.887968821059517e-05    1    1    4    3
 0.2501751469693821    1    1    4    4
 -2.915756833254957e-06    1    1    5    1
 1.402814585392369e-08    1    1    5    2
 2.434153170704253e-07    1    1    5    3
 -4.281000662786414e-05    1    1    5    4
 0.2647092932818951    1    1    5    5
 -7.873261418057459e-07    1    1    6    1
 -2.900939478356346e-06    1    1    6    2
 3.209297904597965e-06    1    1    6    3
 -9.042913755157598e-07    1    1    6    4
 4.157536655229852e-06    1    1    6    5
 0.2424051811938512    1    1    6    6
 -0.0001082904251830617    1    1    7    1
 -0.0001562866610456179    1    1    7    2
 0.01247253818550542    1    1    7    3
 -0.000151880709602488    1    1    7    4
 -4.977344849710287e-06    1    1    7    5
 1.390648786825117e-05    1    1    7    6
 0.2986970842866113    1    1    7    7
 1.138683254472489e-05    1    1    8    1
 0.001819450426579579    1    1    8    2
 0.005998469923908597    1    1    8    3
 -5.020081457769027e-07    1    1    8    4
 -4.428678982227111e-07    1    1    8    5
 2.713910405274713e-07    1    1    8    6
 -0.0004659231884113369    1    1    8    7
 0.297559722099986    1    1    8    8
 0.001823088700257208    1    1    9    1
 9.757162060227429e-06    1    1    9    2
 1.160102587954728e-06    1    1    9    3
 1.256253936066601e-06    1    1    9    4
 1.340387615827521e-07    1    1    9    5
 1.10682642579594e-06    1    1    9    6
 6.936975846320511e-06    1    1    9    7
 8.299390036739447e-07    1    1    9    8
 0.2975537464550939    1    1    9    9
 -5.801913224967592e-06    1    1   10    1
 1.827648025653491e-06    1    1   10    2
 9.180179821950045e-07    1    1   10    3
 1.81578023119837e-07    1    1   10    4
 0.01873381240983188    1    1   10    5
 -6.660991803954469e-09    1    1   10    6
 3.368277116224823e-06    1    1   10    7
 7.904772283579166e-08    1    1   10    8
 -1.133576559896672e-07    1    1   10    9
 0.3012160585178517    1    1   10   10
 -2.414084130216846e-06    1    1   11    1
 -6.480739149033327e-06    1    1   11    2
 -1.415749798207435e-06    1    1   11    3
 -3.128457958090301e-06    1    1   11    4
 -1.993106105274109e-06    1    1   11    5
 0.02462412369657696    1    1   11    6
 -5.722862903181842e-06    1    1   11    7
 3.838685351707175e-07    1    1   11    8
 -5.815043828153364e-07    1    1   11    9
 1.410202017675739e-06    1    1   11   10
 0.2914995268287711    1    1   11   11
 0.006585990262186123    1    1   12    1
 2.130514858469619e-05    1    1   12    2
 1.698474446473725e-05    1    1   12    3
 9.164517457871564e-07    1    1   12    4
 2.136532342711384e-08    1    1   12    5
 2.707572885161035e-06    1    1   12    6
 2.70502416171211e-05    1    1   12    7
 -2.8070800775378e-05    1    1   12    8
 -0.02071765001366962    1    1   12    9
 1.72805507793819e-07    1    1   12   10
 -8.303792783137191e-07    1    1   12   11
 0.2538433781252387    1    1   12   12
 -2.100869229812054e-05    1    1   13    1
 -0.006585828291835362    1    1   13    2
 -0.01471341701830636    1    1   13    3
 -1.267664943255514e-05    1    1   13    4
 1.033635288537978e-06    1    1   13    5
 -1.513648637482129e-06    1    1   13    6
 0.002136512791396406    1    1   13    7
 0.02071166038154352    1    1   13    8
 -3.445390753173518e-05    1    1   13    9
 -7.067072690125246e-07    1    1   13   10
 -4.002672605572279e-07    1    1   13   11
 -1.336203505838862e-05    1    1   13   12
 0.2538383011207203    1    1   13   13
 -6.035020805837676e-08    1    1   14    1
 3.14774792031371e-06    1    1   14    2
 -1.51238129977746e-06    1    1   14    3
 -0.0003015693960465799    1    1   14    4
 0.008273621067221248    1    1   14    5
 0.0001717297535016223    1    1   14    6
 -2.522597273321269e-07    1    1   14    7
 -1.454848710773715e-06    1    1   14    8
 4.005815027081916e-07    1    1   14    9
 -0.003805398557549349    1    1   14   10
 -7.904087431255598e-05    1    1   14   11
 -1.685669519246868e-06    1    1   14   12
 -8.041004886040655e-07    1    1   14   13
 0.2479331210106561    1    1   14   14
 1.199295544711656e-06    1    1   15    1
 -1.05967472574086e-06    1    1   15    2
 -2.200368052165079e-06    1    1   15    3
 0.01658851284255387    1    1   15    4
 0.000122744200142008    1    1   15    5
 -0.008272904438606168    1    1   15    6
 3.987680057662897e-05    1    1   15    7
 -2.806563474452156e-06    1    1   15    8
 -1.666576164166447e-06    1    1   15    9
 -5.392956102838903e-05    1    1   15   10
 0.003804928924112877    1    1   15   11
 -8.176719712405488e-08    1    1   15   12
 -3.15038014987723e-06    1    1   15   13
 -2.381189445829161e-05    1    1   15   14
 0.2479306887106019    1    1   15   15
 1.055383180440573e-06    2    1    1    1
 0.01184537991651665    2    1    2    1
 -5.175405916949087e-07    2    1    2    2
 3.084361930507716e-06    2    1    3    1
 1.719555321959684e-05    2    1    3    2
 -9.801979877195324e-07    2    1    3    3
 -2.871039465010656e-06    2    1    4    1
 -9.104022643441981e-07    2    1    4    2
 3.362549418289277e-06    2    1    4    3
 3.888025720021837e-07    2    1    4    4
 -3.50228929549122e-06    2    1    5    1
 -3.387321803258181e-10    2    1    5    2
 3.169997192489925e-06    2    1    5    3
 -4.251472056977181e-06    2    1    5    4
 -2.711434096110141e-06    2    1    5    5
 -7.688992810853112e-08    2    1    6    1
 -3.221887445642609e-06    2    1    6    2
 1.34071838871707e-06    2    1    6    3
 -2.02345384653241e-05    2    1    6    4
 0.01115236583732544    2    1    6    5
 4.389373396024131e-06    2    1    6    6
 2.068683598030285e-05    2    1    7    1
 2.001537167664939e-05    2    1    7    2
 -3.376613333612813e-06    2    1    7    3
 -1.44304500228608e-06    2    1    7    4
 -4.05142868465298e-06    2    1    7    5
 1.042193004379037e-06    2    1    7    6
 4.717021751137662e-06    2    1    7    7
 0.001822992561580268    2    1    8    1
 -6.5510946176367e-06    2    1    8    2
 3.679770960565669e-06    2    1    8    3
 -6.083832984522683e-07    2    1    8    4
 7.368084216830993e-07    2    1    8    5
 2.09040409320871e-07    2    1    8    6
 3.623559550179746e-06    2    1    8    7
 3.149614022789057e-06    2    1    8    8
 3.063207405522005e-06    2    1    9    1
 -0.001823570700762718    2    1    9    2
 0.005994951756931315    2    1    9    3
 3.164296288938641e-06    2    1    9    4
 1.609171584419024e-07    2    1    9    5
 1.235654004774962e-06    2    1    9    6
 -0.0004782869972853281    2    1    9    7
 2.737370769487392e-08    2    1    9    8
 2.912923199664206e-06    2    1    9    9
 7.900967967925875e-07    2    1   10    1
 3.363501730024431e-07    2    1   10    2
 -1.090440348894981e-06    2    1   10    3
 -3.554147158653329e-06    2    1   10    4
 1.826644218745044e-06    2    1   10    5
 -0.002945140807592635    2    1   10    6
 6.482390662712801e-07    2    1   10    7
 2.490388590258236e-07    2    1   10    8
 -2.151838689377529e-07    2    1   10    9
 2.054185320356627e-06    2    1   10   10
 3.648830461853124e-07    2    1   11    1
 1.883333375797673e-06    2    1   11    2
 -1.975467728191927e-07    2    1   11    3
 2.835602845369144e-06    2    1   11    4
 -0.002945466710066201    2    1   11    5
 1.916221829173269e-07    2    1   11    6
 2.020307759220012e-07    2    1   11    7
 1.047719437772557e-07    2    1   11    8
 1.237522108194964e-07    2    1   11    9
 0.004858365317438153    2    1   11   10
 4.598821239871052e-06    2    1   11   11
 1.608895872710316e-05    2    1   12    1
 -0.006589891503996555    2    1   12    2
 0.01470405772793803    2    1   12    3
 1.154820675526406e-05    2    1   12    4
 1.79826988143448e-06    2    1   12    5
 2.677464422363388e-06    2    1   12    6
 -0.002183439790452467    2    1   12    7
 -3.819692239020869e-07    2    1   12    8
 -2.4353453102105e-06    2    1   12    9
 -8.461234384532939e-07    2    1   12   10
 -1.481794650381963e-06    2    1   12   11
 -5.061762896999202e-06    2    1   12   12
 -0.006584310101733573    2    1   13    1
 6.679340903750854e-06    2    1   13    2
 1.310827988362063e-05    2    1   13    3
 3.95616617044211e-07    2    1   13    4
 -3.764204447473992e-06    2    1   13    5
 -1.24864977937053e-06    2    1   13    6
 -1.614405454721493e-05    2    1   13    7
 -4.808701849322595e-07    2    1   13    8
 2.419115083900807e-07    2    1   13    9
 8.971708795723482e-07    2    1   13   10
 2.6443254696443e-07    2    1   13   11
 -4.216850653102708e-07    2    1   13   12
 7.209612429989404e-06    2    1   13   13
 3.032595072863456e-06    2    1   14    1
 5.054068525190726e-06    2    1   14    2
 4.627915866428807e-06    2    1   14    3
 -0.01658846745503383    2    1   14    4
 0.0001581840184996793    2    1   14    5
 -0.008273873538597145    2    1   14    6
 -3.662241877743942e-05    2    1   14    7
 -9.993511865609635e-07    2    1   14    8
 -9.619312980818156e-07    2    1   14    9
 -7.48699053431692e-05    2    1   14   10
 0.003803030983163474    2    1   14   11
 -3.538799380929341e-06    2    1   14   12
 -2.023338902421121e-06    2    1   14   13
 -1.153275663805857e-05    2    1   14   14
 -2.120876167881289e-06    2    1   15    1
 -9.693177417192039e-07    2    1   15    2
 -1.137211747639997e-06    2    1   15    3
 -0.0002992456884618355    2    1   15    4
 -0.008274152257285347    2    1   15    5
 -0.0001344967967086922    2    1   15    6
 -1.347807179086563e-06    2    1   15    7
 9.087257940756765e-07    2    1   15    8
 -5.696633302546524e-07    2    1   15    9
 0.003806771569127484    2    1   15   10
 6.185033861409798e-05    2    1   15   11
 -2.212903746846182e-06    2    1   15   12
 -2.806390894355658e-06    2    1   15   13
 -1.382683726653549e-06    2    1   15   14
 1.166924308749664e-05    2    1   15   15
 0.2323175750407181    2    2    1    1
 -5.175405916960808e-07    2    2    2    1
 0.2560070356901751    2    2    2    2
 -2.583418156030205e-05    2    2    3    1
 -3.256039848286124e-05    2    2    3    2
 0.2539027112916399    2    2    3    3
 -4.795715686060604e-07    2    2    4    1
 -8.027693569570628e-06    2    2    4    2
 -2.79974054141624e-05    2    2    4    3
 0.2501748600928322    2    2    4    4
 -2.593260978761558e-06    2    2    5    1
 5.629380936793553e-08    2    2    5    2
 -1.470456711844475e-06    2    2    5    3
 -3.596781906413583e-06    2    2    5    4
 0.2424051053540096    2    2    5    5
 -2.952312812519114e-06    2    2    6    1
 -2.191769953682754e-06    2    2    6    2
 1.087846277509675e-05    2    2    6    3
 -6.824836817202447e-06    2    2    6    4
 -4.602279882651297e-06    2    2    6    5
 0.2647093957212447    2    2    6    6
 -0.0001428649407300236    2    2    7    1
 -0.0001072780591473362    2    2    7    2
 0.01248271701167823    2    2    7    3
 -0.0001518657949721031    2    2    7    4
 -8.023237619649828e-06    2    2    7    5
 5.693231360753717e-06    2    2    7    6
 0.2986954157076315    2    2    7    7
 -3.135008894130959e-06    2    2    8    1
 -0.00182265922459227    2    2    8    2
 -0.005990439250578745    2    2    8    3
 -8.362389615205589e-06    2    2    8    4
 1.01673473112962e-08    2    2    8    5
 -2.097816704549533e-06    2    2    8    6
 0.0004736772124294169    2    2    8    7
 0.2975579495773206    2    2    8    8
 -0.001821281116251629    2    2    9    1
 4.57502316959711e-06    2    2    9    2
 7.461484001130111e-06    2    2    9    3
 7.813553538765647e-08    2    2    9    4
 2.161020838770036e-06    2    2    9    5
 1.780034803611687e-07    2    2    9    6
 -1.411558316193975e-06    2    2    9    7
 1.059235016475632e-07    2    2    9    8
 0.2975545249116946    2    2    9    9
 -6.821077166572348e-06    2    2   10    1
 1.263494169540051e-06    2    2   10    2
 1.338050914360516e-06    2    2   10    3
 -5.850891548822832e-06    2    2   10    4
 0.02462407689739225    2    2   10    5
 2.00816118879896e-06    2    2   10    6
 3.239456776848442e-06    2    2   10    7
 3.389501148118613e-07    2    2   10    8
 -2.251161468810859e-07    2    2   10    9
 0.2914998874548155    2    2   10   10
 -3.22387399294037e-06    2    2   11    1
 -5.972277511839819e-06    2    2   11    2
 -4.428412846796631e-06    2    2   11    3
 -1.246033695762874e-05    2    2   11    4
 -2.412000175170957e-07    2    2   11    5
 0.01873447437284324    2    2   11    6
 -4.53473324077171e-06    2    2   11    7
 -5.681876526929708e-07    2    2   11    8
 -2.265342572167535e-07    2    2   11    9
 -1.240551164184356e-06    2    2   11   10
 0.3012156791623188    2    2   11   11
 -0.006592104507352313    2    2   12    1
 -1.492128932387219e-06    2    2   12    2
 -1.29775262214938e-05    2    2   12    3
 9.059131637214972e-09    2    2   12    4
 4.610337195850613e-06    2    2   12    5
 -1.325075224657671e-06    2    2   12    6
 2.932366105433653e-06    2    2   12    7
 -3.127715245111478e-05    2    2   12    8
 -0.02071627471755584    2    2   12    9
 -3.060543194259146e-06    2    2   12   10
 7.710014211593971e-09    2    2   12   11
 0.2538447759883747    2    2   12   12
 -5.694318907887989e-07    2    2   13    1
 0.006578694568508679    2    2   13    2
 0.01470656364450535    2    2   13    3
 8.650926326818006e-06    2    2   13    4
 -2.038815076853934e-06    2    2   13    5
 7.054418416575954e-06    2    2   13    6
 -0.002171207404286291    2    2   13    7
 0.02071367123450268    2    2   13    8
 -3.249483986575693e-05    2    2   13    9
 -1.815839444358326e-08    2    2   13   10
 -2.063703952072046e-06    2    2   13   11
 -1.050746200043052e-06    2    2   13   12
 0.2538359973314744    2    2   13   13
 6.427615764271859e-06    2    2   14    1
 -8.607186722331857e-07    2    2   14    2
 -7.690104539299061e-07    2    2   14    3
 0.0003019375326348914    2    2   14    4
 -0.008272962003375043    2    2   14    5
 -0.000144616799965808    2    2   14    6
 -1.322313774743953e-06    2    2   14    7
 -1.374045742866801e-06    2    2   14    8
 -7.895997331426596e-07    2    2   14    9
 0.003802556076624946    2    2   14   10
 6.568792103819102e-05    2    2   14   11
 -6.372870478707493e-06    2    2   14   12
 -1.098073454155026e-06    2    2   14   13
 0.2479322669091186    2    2   14   14
 -1.43123756837668e-06    2    2   15    1
 7.886927657700573e-06    2    2   15    2
 2.235782499858917e-06    2    2   15    3
 -0.01658816867289351    2    2   15    4
 -0.0001496961129350363    2    2   15    5
 0.008271702925985789    2    2   15    6
 -4.063020597023614e-05    2    2   15    7
 -7.28680347317559e-06    2    2   15    8
 -1.5163626147064e-06    2    2   15    9
 6.648134008178342e-05    2    2   15   10
 -0.003810388099375912    2    2   15   11
 -9.92197412969225e-08    2    2   15   12
 1.752744708177767e-06    2    2   15   13
 -1.48954844349827e-06    2    2   15   14
 0.2479331671275731    2    2   15   15
 5.131800506415633e-06    3    1    1    1
 3.084361930514311e-06    3    1    2    1
 -2.583418156030723e-05    3    1    2    2
 0.0489905537116849    3    1    3    1
 -3.328959092307478e-06    3    1    3    2
 -5.075928270885698e-05    3    1    3    3
 2.695689990322298e-05    3    1    4    1
 9.545231909722333e-07    3    1    4    2
 -2.912529517964892e-06    3    1    4    3
 -2.431979808660058e-05    3    1    4    4
 4.180427024293537e-06    3    1    5    1
 4.824852524156318e-06    3    1    5    2
 -7.356227851612607e-06    3    1    5    3
 -0.04532564160505843    3    1    5    4
 -5.961015700962789e-05    3    1    5    5
 -8.408867375134666e-08    3    1    6    1
 3.47021347908472e-06    3    1    6    2
 2.259254918291588e-06    3    1    6    3
 -6.292388567927053e-06    3    1    6    4
 2.106401221039831e-06    3    1    6    5
 -5.216214091169987e-05    3    1    6    6
 -0.008420197192716975    3    1    7    1
 -7.390658500863428e-06    3    1    7    2
 5.984733137620683e-08    3    1    7    3
 -2.476609777514189e-06    3    1    7    4
 -0.0002484249275170108    3    1    7    5
 3.514420818585736e-07    3    1    7    6
 -0.0004121012461141332    3    1    7    7
 0.01093246258690591    3    1    8    1
 6.868109569819869e-06    3    1    8    2
 4.406270919346769e-07    3    1    8    3
 -3.079841915207637e-08    3    1    8    4
 7.988904044214061e-06    3    1    8    5
 1.899864441034026e-06    3    1    8    6
 2.029802232189519e-05    3    1    8    7
 -0.0002714450045154379    3    1    8    8
 -8.080777702616443e-06    3    1    9    1
 0.01093612675629624    3    1    9    2
 5.988942648361834e-06    3    1    9    3
 1.189815464875735e-06    3    1    9    4
 -8.015304578927529e-07    3    1    9    5
 1.324211205060242e-05    3    1    9    6
 2.201671680708809e-05    3    1    9    7
 0.001678615405960436    3    1    9    8
 -0.0002780710964892842    3    1    9    9
 -1.363456074455322e-06    3    1   10    1
 -7.384858247297248e-07    3    1   10    2
 -9.978430341108912e-05    3    1   10    3
 0.01969713009900183    3    1   10    4
 -0.0001124102760006908    3    1   10    5
 -2.511761140357912e-07    3    1   10    6
 -0.0003491329147806614    3    1   10    7
 1.622077852535969e-05    3    1   10    8
 -3.168680731371296e-07    3    1   10    9
 -0.0003178371166857127    3    1   10   10
 8.688773009193362e-07    3    1   11    1
 -7.795001206009473e-07    3    1   11    2
 1.493097435730776e-06    3    1   11    3
 1.910663002576529e-06    3    1   11    4
 -4.630313014456831e-06    3    1   11    5
 -0.0001094562865142557    3    1   11    6
 -1.009751881430742e-06    3    1   11    7
 -9.715046619577831e-08    3    1   11    8
 1.416147916131821e-05    3    1   11    9
 3.365297478125352e-06    3    1   11   10
 -0.0003229297676464662    3    1   11   11
 3.187741749751812e-05    3    1   12    1
 0.03326275210193551    3    1   12    2
 1.843564954327144e-05    3    1   12    3
 3.209426858503354e-06    3    1   12    4
 -7.869583782544104e-07    3    1   12    5
 3.064974807901605e-06    3    1   12    6
 6.83161680455705e-05    3    1   12    7
 0.005994028978513279    3    1   12    8
 0.0001086333803586925    3    1   12    9
 -7.687160122970977e-07    3    1   12   10
 -1.523801579862965e-05    3    1   12   11
 -5.782190519845631e-05    3    1   12   12
 -0.03326943320208236    3    1   13    1
 2.967748527991094e-05    3    1   13    2
 -7.648075719976993e-07    3    1   13    3
 -6.158671306901551e-07    3    1   13    4
 -7.186980839802778e-06    3    1   13    5
 -2.912908300915953e-06    3    1   13    6
 -6.740298340815706e-05    3    1   13    7
 -0.000111812087389013    3    1   13    8
 -0.005995635657880648    3    1   13    9
 1.627545965545308e-05    3    1   13   10
 -7.968258602333418e-07    3    1   13   11
 -0.0196995284192313    3    1   13   12
 -0.000113020208203847    3    1   13   13
 -2.658003263543841e-06    3    1   14    1
 7.696676997608759e-06    3    1   14    2
 -2.164932863078609e-06    3    1   14    3
 -7.29313523887856e-06    3    1   14    4
 0.0006115071968754011    3    1   14    5
 0.03410389738712609    3    1   14    6
 -8.191621362374493e-06    3    1   14    7
 1.745080814272854e-06    3    1   14    8
 8.925795435130374e-07    3    1   14    9
 -0.0002062618306267414    3    1   14   10
 -0.01148685221071231    3    1   14   11
 6.668640848422408e-06    3    1   14   12
 -1.120116139537684e-05    3    1   14   13
 0.001091904414314784    3    1   14   14
 -2.827928506813487e-06    3    1   15    1
 -1.824215784421298e-06    3    1   15    2
 -1.658096735306495e-06    3    1   15    3
 3.022086386242993e-06    3    1   15    4
 -0.03410939691680509    3    1   15    5
 0.000610357380939079    3    1   15    6
 -4.890957230665259e-06    3    1   15    7
 -2.601728604953447e-07    3    1   15    8
 -1.875473844140281e-06    3    1   15    9
 0.01148837117558211    3    1   15   10
 -0.0002066555716013271    3    1   15   11
 -4.931392294803966e-06    3    1   15   12
 -2.477550061094597e-06    3    1   15   13
 -0.03086188988644164    3    1   15   14
 -0.00111495970337945    3    1   15   15
 -3.780169254701204e-05    3    2    1    1
 1.719555321960181e-05    3    2    2    1
 -3.256039848285787e-05    3    2    2    2
 -3.328959092313116e-06    3    2    3    1
 0.04900127523338946    3    2    3    2
 -2.298388993135084e-05    3    2    3    3
 2.417584688491122e-06    3    2    4    1
 2.89815208403231e-05    3    2    4    2
 2.465232181729034e-06    3    2    4    3
 -3.41424303176562e-05    3    2    4    4
 5.299702666572403e-06    3    2    5    1
 -5.303780583257831e-08    3    2    5    2
 -3.128337276168821e-07    3    2    5    3
 9.798850075757434e-06    3    2    5    4
 -6.295441125911077e-05    3    2    5    5
 1.852185221755992e-06    3    2    6    1
 1.186506267927821e-05    3    2    6    2
 -7.813046610714164e-06    3    2    6    3
 -0.04533012232104721    3    2    6    4
 -4.31769792537181e-06    3    2    6    5
 -5.854940063327822e-05    3    2    6    6
 -7.338958044889202e-06    3    2    7    1
 -0.008400567303318457    3    2    7    2
 -7.610653451041131e-06    3    2    7    3
 1.314420446166928e-05    3    2    7    4
 7.039619544602279e-07    3    2    7    5
 -0.000248366455888006    3    2    7    6
 -0.0004511982686134371    3    2    7    7
 6.187857158568301e-06    3    2    8    1
 -0.01093494297592523    3    2    8    2
 -7.006380444332476e-06    3    2    8    3
 -1.442810686505057e-06    3    2    8    4
 1.047411498825669e-06    3    2    8    5
 -1.668249528038405e-05    3    2    8    6
 -2.559410747489014e-05    3    2    8    7
 0.001375807645219056    3    2    8    8
 0.0109371185446336    3    2    9    1
 3.757791262045085e-06    3    2    9    2
 -9.581013677854471e-07    3    2    9    3
 5.873732439864377e-07    3    2    9    4
 1.33040091034051e-05    3    2    9    5
 1.724373985229448e-06    3    2    9    6
 2.36331513325019e-05    3    2    9    7
 -2.338236492900347e-06    3    2    9    8
 -0.0019814810847427    3    2    9    9
 -1.565840979650885e-06    3    2   10    1
 -5.110030794864863e-07    3    2   10    2
 -9.189939873723763e-07    3    2   10    3
 -3.15105084434531e-06    3    2   10    4
 -0.0001195516843871764    3    2   10    5
 -4.745956137525352e-06    3    2   10    6
 1.50250831258865e-07    3    2   10    7
 -1.407774578281351e-07    3    2   10    8
 1.407025945267119e-05    3    2   10    9
 -0.0003558388700971031    3    2   10   10
 3.383181625257112e-07    3    2   11    1
 -2.635139955585836e-06    3    2   11    2
 -9.957289555376832e-05    3    2   11    3
 0.01969885106983582    3    2   11    4
 2.747132481792522e-06    3    2   11    5
 -0.0001225920114444281    3    2   11    6
 -0.0003488859288462555    3    2   11    7
 -1.284655193183699e-05    3    2   11    8
 -3.066637889853393e-07    3    2   11    9
 2.291890779131297e-06    3    2   11   10
 -0.0003503479198641551    3    2   11   11
 0.03326497819075268    3    2   12    1
 -3.420146343948397e-05    3    2   12    2
 4.032634197559358e-06    3    2   12    3
 3.701987334431183e-07    3    2   12    4
 3.300314359066039e-06    3    2   12    5
 1.454288440174039e-06    3    2   12    6
 7.673720753830247e-05    3    2   12    7
 -6.406360595416106e-07    3    2   12    8
 -0.005875783650028875    3    2   12    9
 -1.538354408651358e-05    3    2   12   10
 1.186949697024116e-06    3    2   12   11
 -0.0197948269022955    3    2   12   12
 3.128483143028425e-05    3    2   13    1
 0.03327096196978063    3    2   13    2
 2.338919252788861e-05    3    2   13    3
 5.041314673218141e-06    3    2   13    4
 -3.358038648568728e-07    3    2   13    5
 7.442301523189962e-06    3    2   13    6
 7.975250563006819e-05    3    2   13    7
 -0.00611519001709248    3    2   13    8
 1.29743647610321e-07    3    2   13    9
 -4.637160424813382e-07    3    2   13   10
 -1.648919652653697e-05    3    2   13   11
 -2.582686860326319e-05    3    2   13   12
 0.01961126983346496    3    2   13   13
 7.748221791128995e-06    3    2   14    1
 -6.954903818111595e-07    3    2   14    2
 7.030708672369274e-07    3    2   14    3
 -5.761296569963123e-06    3    2   14    4
 0.03410634224767357    3    2   14    5
 -0.0006140540810705708    3    2   14    6
 3.843684216231107e-06    3    2   14    7
 7.132387146723221e-07    3    2   14    8
 -7.743805357312249e-07    3    2   14    9
 -0.01148656414815275    3    2   14   10
 0.0002071455932282648    3    2   14   11
 -1.319433407632326e-06    3    2   14   12
 -4.284975147053209e-06    3    2   14   13
 -0.03088150263008491    3    2   14   14
 -2.281658915543683e-06    3    2   15    1
 3.333063500855077e-06    3    2   15    2
 -2.503787898211097e-06    3    2   15    3
 -9.224189052032416e-06    3    2   15    4
 0.0006113532393155009    3    2   15    5
 0.0341144337999035    3    2   15    6
 -7.939856419236668e-06    3    2   15    7
 -2.579931744557326e-06    3    2   15    8
 -8.438171632909236e-07    3    2   15    9
 -0.0002065085682426534    3    2   15   10
 -0.01148959819292574    3    2   15   11
 -4.039248901305145e-06    3    2   15   12
 1.285314221089601e-05    3    2   15   13
 -0.001099584156022451    3    2   15   14
 0.0308521171868305    3    2   15   15
 0.2538973606275802    3    3    1    1
 -9.801979877180823e-07    3    3    2    1
 0.2539027112916402    3    3    2    2
 -5.075928270883496e-05    3    3    3    1
 -2.298388993133399e-05    3    3    3    2
 0.2690139136957062    3    3    3    3
 -1.075139786746725e-06    3    3    4    1
 3.141884437746282e-06    3    3    4    2
 -0.0001829519963355841    3    3    4    3
 0.2620117027556751    3    3    4    4
 5.83704506842142e-05    3    3    5    1
 1.123708952000305e-06    3    3    5    2
 -1.291893598405746e-06    3    3    5    3
 -9.318753338647046e-06    3    3    5    4
 0.2677269816206722    3    3    5    5
 -1.833180201741557e-06    3    3    6    1
 5.819028660652981e-05    3    3    6    2
 2.837561242002146e-06    3    3    6    3
 -4.073976762477039e-05    3    3    6    4
 -1.702887806317169e-06    3    3    6    5
 0.267732199753957    3    3    6    6
 -0.0002267160681765721    3    3    7    1
 -0.0002516050222967515    3    3    7    2
 0.02570382015220116    3    3    7    3
 -0.0003966471911776778    3    3    7    4
 -1.284012724321116e-05    3    3    7    5
 2.32698554012334e-05    3    3    7    6
 0.3578356746687504    3    3    7    7
 -4.947997573229065e-07    3    3    8    1
 -1.131113339318699e-05    3    3    8    2
 7.798405020989731e-06    3    3    8    3
 -7.525867682391482e-06    3    3    8    4
 -5.933422164261081e-08    3    3    8    5
 8.38102986374387e-07    3    3    8    6
 1.59287139349653e-05    3    3    8    7
 0.3403181580956537    3    3    8    8
 9.185581872116517e-06    3    3    9    1
 4.667731229090212e-06    3    3    9    2
 8.973225828594076e-06    3    3    9    3
 5.293926801228453e-07    3    3    9    4
 -3.724983841142134e-07    3    3    9    5
 9.366291319951769e-07    3    3    9    6
 1.369036692122846e-05    3    3    9    7
 3.152669633814815e-07    3    3    9    8
 0.3403065477060938    3    3    9    9
 -8.477492521091756e-05    3    3   10    1
 2.254061908889774e-06    3    3   10    2
 1.829335452563851e-06    3    3   10    3
 -9.629365691365406e-06    3    3   10    4
 0.03740117667478999    3    3   10    5
 2.049789660441223e-06    3    3   10    6
 5.177120486650057e-06    3    3   10    7
 2.539551010221686e-07    3    3   10    8
 2.182934083058406e-07    3    3   10    9
 0.3455715865027514    3    3   10   10
 -5.339692710521293e-06    3    3   11    1
 -8.4418832684445e-05    3    3   11    2
 -1.782117620773423e-06    3    3   11    3
 1.028055222958266e-05    3    3   11    4
 -1.605359346483893e-06    3    3   11    5
 0.03740040985824414    3    3   11    6
 -1.030885193180478e-05    3    3   11    7
 -7.462872961132801e-07    3    3   11    8
 -6.75459405420887e-07    3    3   11    9
 -1.059478417511178e-07    3    3   11   10
 0.3455722093898822    3    3   11   11
 2.647244764467332e-05    3    3   12    1
 3.466270454816417e-06    3    3   12    2
 1.854935071880738e-06    3    3   12    3
 -6.783532295054015e-07    3    3   12    4
 -2.429936101064448e-06    3    3   12    5
 6.380368832634685e-07    3    3   12    6
 2.622696027474017e-05    3    3   12    7
 -5.131100135098738e-05    3    3   12    8
 -0.03421349301024889    3    3   12    9
 -3.18333640162677e-07    3    3   12   10
 -3.621202774248379e-07    3    3   12   11
 0.269716145456497    3    3   12   12
 -3.42840630009167e-06    3    3   13    1
 2.897837652830491e-05    3    3   13    2
 -2.684877377066382e-06    3    3   13    3
 -2.978634984056226e-06    3    3   13    4
 -1.792395759452905e-06    3    3   13    5
 -1.941777264795753e-06    3    3   13    6
 -3.093345192479457e-05    3    3   13    7
 0.03419429403956538    3    3   13    8
 -5.296105633987102e-05    3    3   13    9
 -2.791377881594106e-07    3    3   13   10
 2.038645161000222e-07    3    3   13   11
 -2.111354215116149e-06    3    3   13   12
 0.2697405901531056    3    3   13   13
 -2.194840176612567e-06    3    3   14    1
 1.228282421413373e-06    3    3   14    2
 -3.093665121762265e-07    3    3   14    3
 2.285669966365923e-06    3    3   14    4