 &FCI NORB=  15,NELEC=18,MS2=0,
  ORBSYM=1,1,1,1,1,1,1,1,1,1,1,1,1,1,1,
  ISYM=1,
 &END
 0.5589237098679896    1    1    1    1
 0.000891603331006903    1    1    2    1
 0.1544083768645866    1    1    2    2
 -0.0002078756591271753    1    1    3    1
 0.001635377202834236    1    1    3    2
 0.219728555399332    1    1    3    3
 -0.0008915663318622598    1    1    4    1
 0.002231967809584409    1    1    4    2
 0.001689762726133898    1    1    4    3
 0.1544083190092568    1    1    4    4
 0.008371863902473391    1    1    5    1
 0.001507144444252626    1    1    5    2
 0.000181649581303393    1    1    5    3
 -0.001507202333353414    1    1    5    4
 0.2064579740795793    1    1    5    5
 0.0002079498854012608    1    1    6    1
 0.001689845989868485    1    1    6    2
 0.0007710125896921833    1    1    6    3
 0.001635422511028284    1    1    6    4
 -0.0001816846784863501    1    1    6    5
 0.2197287095780465    1    1    6    6
 0.007920119978574343    1    1    7    1
 0.004197384370382438    1    1    7    2
 -0.003526693045986748    1    1    7    3
 -0.004199134692234935    1    1    7    4
 -0.001455560735400007    1    1    7    5
 0.003529091230023086    1    1    7    6
 0.304259219795203    1    1    7    7
 0.00219542086431384    1    1    8    1
 -0.006193785927433619    1    1    8    2
 -0.003163511798090751    1    1    8    3
 -0.007786451363444212    1    1    8    4
 0.001891365202764925    1    1    8    5
 -0.002335620276861799    1    1    8    6
 0.0004508240688117427    1    1    8    7
 0.3025644905266981    1    1    8    8
 0.005498844797253509    1    1    9    1
 0.004784400422175338    1    1    9    2
 6.11792247061471e-05    1    1    9    3
 0.0007956171604629927    1    1    9    4
 0.004739106163099508    1    1    9    5
 0.002133721630437339    1    1    9    6
 0.001123359858065927    1    1    9    7
 0.0003033686333063109    1    1    9    8
 0.3032032631660614    1    1    9    9
 0.004523413889682809    1    1   10    1
 0.004477421924474076    1    1   10    2
 -0.001231848647682802    1    1   10    3
 0.001831933749902622    1    1   10    4
 -0.001650976240392299    1    1   10    5
 -0.003780338122368054    1    1   10    6
 -0.003487851005673539    1    1   10    7
 -0.003363538311966074    1    1   10    8
 0.00485467571678659    1    1   10    9
 0.3032431702176356    1    1   10   10
 -0.008068924160326989    1    1   11    1
 -0.0005908224201117996    1    1   11    2
 -0.003681171792521688    1    1   11    3
 0.004125236731800233    1    1   11    4
 0.002946098906864262    1    1   11    5
 0.0008733567388582572    1    1   11    6
 0.006229183858429686    1    1   11    7
 -0.004719175891228917    1    1   11    8
 -0.004385080591624973    1    1   11    9
 -0.003449084422037879    1    1   11   10
 0.3074744206371682    1    1   11   11
 -0.005168512164079536    1    1   12    1
 -0.002471505186388971    1    1   12    2
 -0.001556148695469546    1    1   12    3
 -0.003513305275917187    1    1   12    4
 -0.0011430089596117    1    1   12    5
 -0.00146721908130509    1    1   12    6
 0.002281918659074848    1    1   12    7
 0.001142342502582947    1    1   12    8
 -0.007284612130573334    1    1   12    9
 0.0009792354964996534    1    1   12   10
 0.004463214565224017    1    1   12   11
 0.179152524943763    1    1   12   12
 0.008750515386374575    1    1   13    1
 -0.001780116563752382    1    1   13    2
 -0.002213423858851199    1    1   13    3
 -0.0006564146110514691    1    1   13    4
 -0.0006745889714604861    1    1   13    5
 -0.007024336830904802    1    1   13    6
 -0.0007747847768550331    1    1   13    7
 -0.0002192539589792165    1    1   13    8
 0.002304528858186997    1    1   13    9
 0.001935206193988575    1    1   13   10
 0.0005877707160630326    1    1   13   11
 0.001894978921788938    1    1   13   12
 0.3143884006140905    1    1   13   13
 -0.008750448700684655    1    1   14    1
 -0.0006562920452772274    1    1   14    2
 -0.007024377030851265    1    1   14    3
 -0.001780175161252024    1    1   14    4
 0.0006746147267807159    1    1   14    5
 -0.002213326576784103    1    1   14    6
 0.0007733075718715857    1    1   14    7
 -0.001745676966791041    1    1   14    8
 -0.001520224026775384    1    1   14    9
 0.001512514705452903    1    1   14   10
 0.001343521893942948    1    1   14   11
 0.0003086885150415559    1    1   14   12
 0.006919605647228148    1    1   14   13
 0.314388571056062    1    1   14   14
 -0.005168455780388131    1    1   15    1
 0.003513221622619844    1    1   15    2
 0.001467264041805261    1    1   15    3
 0.002471539264610076    1    1   15    4
 -0.001143068500722    1    1   15    5
 0.001556082708739131    1    1   15    6
 0.002284962156082854    1    1   15    7
 -0.005844127539205082    1    1   15    8
 -0.004496084260216542    1    1   15    9
 -0.004315973176320846    1    1   15   10
 0.001496980227317366    1    1   15   11
 -0.0002591773005315933    1    1   15   12
 -0.0003086504171214689    1    1   15   13
 -0.001895018467084834    1    1   15   14
 0.1791525217999497    1    1   15   15
 0.0008916033310069129    2    1    1    1
 0.0001941142969300122    2    1    2    1
 0.000912794435514466    2    1    2    2
 0.0001569018605562927    2    1    3    1
 4.628936132043054e-05    2    1    3    2
 -0.001556048931654018    2    1    3    3
 9.492317383591911e-05    2    1    4    1
 0.0002274547285697106    2    1    4    2
 -0.0001074258956463908    2    1    4    3
 -0.001771940019364298    2    1    4    4
 5.136263135699481e-05    2    1    5    1
 -0.0002400865230965318    2    1    5    2
 -9.238621763098977e-05    2    1    5    3
 -0.0001252237374460268    2    1    5    4
 0.0001731371750394573    2    1    5    5
 0.0002400466021658037    2    1    6    1
 -4.969809086299109e-05    2    1    6    2
 0.000110598605533611    2    1    6    3
 6.043675242596886e-05    2    1    6    4
 -0.0001543915356445136    2    1    6    5
 0.0001817799693576802    2    1    6    6
 4.670067216160807e-05    2    1    7    1
 -5.199227935143435e-05    2    1    7    2
 -0.0001597239586815816    2    1    7    3
 -0.0001481169448236142    2    1    7    4
 -9.777760466630912e-06    2    1    7    5
 -7.230740340664155e-06    2    1    7    6
 0.0003756648809518371    2    1    7    7
 -0.0001158426165324655    2    1    8    1
 -0.000132277835174127    2    1    8    2
 -3.660318510508321e-05    2    1    8    3
 -4.238002442323364e-05    2    1    8    4
 9.746072115912855e-05    2    1    8    5
 -0.0001163230048898561    2    1    8    6
 6.785792635637439e-06    2    1    8    7
 0.0001861683156100097    2    1    8    8
 -6.727926831768039e-05    2    1    9    1
 1.692280716238469e-06    2    1    9    2
 -9.301551003075239e-05    2    1    9    3
 -9.269821672216142e-05    2    1    9    4
 6.400820898406386e-05    2    1    9    5
 1.065292050050247e-05    2    1    9    6
 -3.69436164543206e-05    2    1    9    7
 0.0001635020350572947    2    1    9    8
 -0.0004166458036322833    2    1    9    9
 0.0001471819071744203    2    1   10    1
 0.0001435494947292521    2    1   10    2
 0.0001251525752373732    2    1   10    3
 -0.0001058654919789165    2    1   10    4
 0.0001290007213927633    2    1   10    5
 -9.320203716936801e-05    2    1   10    6
 -7.395150883811126e-05    2    1   10    7
 -0.0001007088338579087    2    1   10    8
 -0.0001554652686532135    2    1   10    9
 7.516116830307977e-05    2    1   10   10
 0.0001520063205064581    2    1   11    1
 0.0001601053270199034    2    1   11    2
 -7.335084459084864e-05    2    1   11    3
 0.0001069747527834623    2    1   11    4
 0.0001078664772157654    2    1   11    5
 -0.0001355725918418054    2    1   11    6
 0.0001272981243957104    2    1   11    7
 -0.0001707786813329839    2    1   11    8
 7.645139665259349e-05    2    1   11    9
 0.0003200497544440234    2    1   11   10
 0.0001197106776564501    2    1   11   11
 -7.553787719226273e-05    2    1   12    1
 0.0001936359126658333    2    1   12    2
 3.935511468701715e-05    2    1   12    3
 4.216418617098787e-05    2    1   12    4
 0.0001126110480961561    2    1   12    5
 5.729763158878344e-05    2    1   12    6
 -0.0002859337610681098    2    1   12    7
 -1.271869821970117e-05    2    1   12    8
 -4.486256190702575e-05    2    1   12    9
 4.210289685501336e-05    2    1   12   10
 5.07565774793907e-06    2    1   12   11
 0.001900884761189938    2    1   12   12
 -0.0002278107530930102    2    1   13    1
 -9.435097234778523e-05    2    1   13    2
 -3.541172501411383e-05    2    1   13    3
 -2.349833630721803e-05    2    1   13    4
 6.072681207766664e-05    2    1   13    5
 -0.0001252532132631384    2    1   13    6
 -0.0001587996317213733    2    1   13    7
 8.342168438051875e-05    2    1   13    8
 -6.045454254288253e-05    2    1   13    9
 -0.0001139420949571995    2    1   13   10
 9.485869690343254e-05    2    1   13   11
 2.640104346421381e-05    2    1   13   12
 -0.00178011305130911    2    1   13   13
 -0.0001917357389931785    2    1   14    1
 7.637242357076121e-05    2    1   14    2
 3.754304523782688e-05    2    1   14    3
 2.640756574599003e-05    2    1   14    4
 5.741180991771636e-05    2    1   14    5
 0.0001123252732768369    2    1   14    6
 -0.0002854550405531554    2    1   14    7
 3.325840159887234e-05    2    1   14    8
 -3.384679012523946e-05    2    1   14    9
 5.111479725660332e-07    2    1   14   10
 -3.794710458490885e-05    2    1   14   11
 0.0001043419628644034    2    1   14   12
 4.104798103105831e-05    2    1   14   13
 0.001894989949164286    2    1   14   14
 4.628094834732909e-05    2    1   15    1
 0.0001559739075280242    2    1   15    2
 1.683172177729089e-05    2    1   15    3
 3.569861428401136e-05    2    1   15    4
 -0.0001106436284554878    2    1   15    5
 9.23756297076588e-05    2    1   15    6
 0.0001503998120942537    2    1   15    7
 -7.52719157150511e-05    2    1   15    8
 6.51995294883159e-05    2    1   15    9
 -8.417949017047814e-05    2    1   15   10
 0.0001195209676039223    2    1   15   11
 -3.637651489869588e-05    2    1   15   12
 0.000107706624122567    2    1   15   13
 -3.781003663684531e-05    2    1   15   14
 -0.001556089640347319    2    1   15   15
 0.1544083768645865    2    2    1    1
 0.0009127944355144654    2    2    2    1
 0.558926512201771    2    2    2    2
 0.003504228198897538    2    2    3    1
 -0.005144084004406843    2    2    3    2
 0.1791526172444079    2    2    3    3
 0.001771976019222912    2    2    4    1
 -0.008754269285668942    2    2    4    2
 0.0003018726056341417    2    2    4    3
 0.3143760547682698    2    2    4    4
 -0.001684700950486657    2    2    5    1
 -0.0002129354763896145    2    2    5    2
 -0.001556227189322801    2    2    5    3
 -0.007016363338854257    2    2    5    4
 0.2197170219649194    2    2    5    5
 -0.001489179417530823    2    2    6    1
 -0.008385991932738937    2    2    6    2
 0.001156970709251799    2    2    6    3
 -0.0006708756676713544    2    2    6    4
 -0.0001731043639312526    2    2    6    5
 0.2064583031075736    2    2    6    6
 -0.004162655015542791    2    2    7    1
 -0.007847401159942561    2    2    7    2
 -0.002198437956833992    2    2    7    3
 -0.0007085790370533024    2    2    7    4
 0.003393460203688611    2    2    7    5
 -0.001578903403229089    2    2    7    6
 0.3020679452458663    2    2    7    7
 -0.003157156115237389    2    2    8    1
 0.004547245544111913    2    2    8    2
 -0.007279160510752079    2    2    8    3
 -0.0009133523655635153    2    2    8    4
 0.001035578015892261    2    2    8    5
 -0.003921545107520278    2    2    8    6
 -0.000972237790316653    2    2    8    7
 0.303029976430095    2    2    8    8
 -0.007169323490868787    2    2    9    1
 -0.003774168167408921    2    2    9    2
 0.001167612339312339    2    2    9    3
 0.002122114571784    2    2    9    4
 0.002985010822888244    2    2    9    5
 0.003264266755527725    2    2    9    6
 0.0008154038802639817    2    2    9    7
 -0.0004335842699216628    2    2    9    8
 0.3028673599974699    2    2    9    9
 -0.000956924052902282    2    2   10    1
 -0.008352305551063349    2    2   10    2
 0.00181738257998939    2    2   10    3
 -0.0004780764366956776    2    2   10    4
 -0.001128892028849224    2    2   10    5
 -0.003073520284582121    2    2   10    6
 -0.005715310485453073    2    2   10    7
 -0.006178945356323002    2    2   10    8
 0.002066541652088514    2    2   10    9
 0.3080176660020841    2    2   10   10
 0.004420767129262168    2    2   11    1
 0.003843743037290861    2    2   11    2
 -0.004190547035922098    2    2   11    3
 -0.001950039645659534    2    2   11    4
 0.003693142864860601    2    2   11    5
 0.001415424589809054    2    2   11    6
 0.002627579358608523    2    2   11    7
 -0.001137320797728276    2    2   11    8
 -0.005740976343509387    2    2   11    9
 -0.003079818768912878    2    2   11   10
 0.3027643074633557    2    2   11   11
 0.0006676550794576714    2    2   12    1
 0.008754464498789671    2    2   12    2
 0.001900640120938795    2    2   12    3
 0.006926834147539605    2    2   12    4
 -0.002221490887465934    2    2   12    5
 0.0006709574795804832    2    2   12    6
 0.0007121139404591837    2    2   12    7
 0.002252196241655975    2    2   12    8
 -0.0005129491439225021    2    2   12    9
 -0.001171784099822099    2    2   12   10
 -0.001629428187291507    2    2   12   11
 0.3143766307193434    2    2   12   12
 -0.002233219451956812    2    2   13    1
 0.0009127737583043399    2    2   13    2
 -0.002477368432474814    2    2   13    3
 -0.0006677480547043289    2    2   13    4
 0.001642304628181544    2    2   13    5
 -0.001489155669516989    2    2   13    6
 -0.00414451944911667    2    2   13    7
 0.006479912381891944    2    2   13    8
 0.004414465451962505    2    2   13    9
 -0.003984872179333929    2    2   13   10
 -0.002149081027771004    2    2   13   11
 -0.001772064802997852    2    2   13   12
 0.1544082498384945    2    2   13   13
 0.002477331042813706    2    2   14    1
 0.005144042851986358    2    2   14    2
 0.0002747198726179142    2    2   14    3
 0.001900787251922313    2    2   14    4
 -0.001473607117011873    2    2   14    5
 -0.001156942083029323    2    2   14    6
 0.002196020414537299    2    2   14    7
 0.002470092641252949    2    2   14    8
 -0.006948314371691322    2    2   14    9
 -0.004365433580970617    2    2   14   10
 -0.001338179129961553    2    2   14   11
 0.0003018522692481099    2    2   14   12
 -0.003504245486781324    2    2   14   13
 0.1791528687201782    2    2   14   14
 0.001642397852173965    2    2   15    1
 -0.0002130326824281648    2    2   15    2
 0.001473634290830666    2    2   15    3
 0.00222166617595332    2    2   15    4
 -0.0007810842209781743    2    2   15    5
 -0.0001731078376104296    2    2   15    6
 0.003391818833790539    2    2   15    7
 -0.002750620986461491    2    2   15    8
 -0.001565888589535982    2    2   15    9
 -0.003539208298727032    2    2   15   10
 -0.001537136205600846    2    2   15   11
 0.00701643491344961    2    2   15   12
 -0.001684599897418878    2    2   15   13
 0.001556118359695327    2    2   15   14
 0.2197167123180238    2    2   15   15
 -0.0002078756591271431    3    1    1    1
 0.0001569018605562941    3    1    2    1
 0.003504228198897502    3    1    2    2
 0.001016180310527791    3    1    3    1
 -3.965489333160418e-05    3    1    3    2
 -0.0002080174621729506    3    1    3    3
 0.0002400524172925551    3    1    4    1
 -0.000146857015299904    3    1    4    2
 0.0001057180571049865    3    1    4    3
 0.001489160924305899    3    1    4    4
 -0.0001057215430455576    3    1    5    1
 -0.0001235674207833992    3    1    5    2
 -0.0002400586271145295    3    1    5    3
 -0.0002882414873517651    3    1    5    4
 0.0014892117604681    3    1    5    5
 0.0003676790464777573    3    1    6    1
 8.023834856253024e-05    3    1    6    2
 -0.0008369220942585851    3    1    6    3
 -8.714376769232337e-05    3    1    6    4
 -0.0001252622433625708    3    1    6    5
 0.007024332604006909    3    1    6    6
 -0.0002252408472257966    3    1    7    1
 -0.0001578824922978354    3    1    7    2
 -0.0002247721750748259    3    1    7    3
 -2.248585355583174e-05    3    1    7    4
 2.234948385660873e-05    3    1    7    5
 -6.53398730112179e-05    3    1    7    6
 0.005911241274586719    3    1    7    7
 9.861966189007312e-05    3    1    8    1
 -0.0001828438387017341    3    1    8    2
 -0.0001602753104905115    3    1    8    3
 -0.0001538694794203582    3    1    8    4
 4.730563129156119e-05    3    1    8    5
 -0.0001324219647335072    3    1    8    6
 0.000180804269087133    3    1    8    7
 0.005138573793994086    3    1    8    8
 -0.0002245359274738345    3    1    9    1
 4.472429937225751e-05    3    1    9    2
 0.0001859607091739185    3    1    9    3
 2.104992402036053e-05    3    1    9    4
 0.0001479311830956096    3    1    9    5
 1.193803999731191e-05    3    1    9    6
 0.0001129546152055115    3    1    9    7
 0.000382118413710677    3    1    9    8
 0.004773477849243877    3    1    9    9
 -1.54446574508526e-05    3    1   10    1
 0.0001915812638944828    3    1   10    2
 8.377124305117338e-06    3    1   10    3
 -0.0001566935849427342    3    1   10    4
 6.899246971431286e-05    3    1   10    5
 0.0001613564055593924    3    1   10    6
 0.0003927070051102561    3    1   10    7
 0.0003134483415221043    3    1   10    8
 9.033746233727652e-05    3    1   10    9
 0.005399507804939046    3    1   10   10
 5.897730352427303e-05    3    1   11    1
 7.613359735098778e-05    3    1   11    2
 -6.066524665760146e-05    3    1   11    3
 0.0001978455130144591    3    1   11    4
 0.0002428026178346652    3    1   11    5
 -0.0002471355236433215    3    1   11    6
 7.873834685460652e-05    3    1   11    7
 -0.0001900276309415271    3    1   11    8
 0.0004183449924617136    3    1   11    9
 -2.298771425110598e-05    3    1   11   10
 0.005511551637240901    3    1   11   11
 -3.964384248763861e-05    3    1   12    1
 6.23633328577593e-05    3    1   12    2
 0.0001568783955155757    3    1   12    3
 0.000123554346839477    3    1   12    4
 0.0001468554227923039    3    1   12    5
 5.303592149039705e-05    3    1   12    6
 -0.0001580461248921976    3    1   12    7
 -3.849981917407236e-05    3    1   12    8
 -0.0001840933356992097    3    1   12    9
 0.0002061455879988296    3    1   12   10
 2.846622440478984e-06    3    1   12   11
 0.003504246135167787    3    1   12   12
 -0.00080842101031182    3    1   13    1
 -4.105733821020262e-05    3    1   13    2
 -0.0008084393660850505    3    1   13    3
 -0.0002013311603856174    3    1   13    4
 0.0002013156176084176    3    1   13    5
 -0.0001941247865754729    3    1   13    6
 -0.0006703670563387107    3    1   13    7
 0.0003881828420817839    3    1   13    8
 0.0002453232926852248    3    1   13    9
 -0.0004520049570915909    3    1   13   10
 -9.039348772442839e-05    3    1   13   11
 -4.105269992774873e-05    3    1   13   12
 -0.006919593034270742    3    1   13   13
 -0.0008369325916747239    3    1   14    1
 5.303861436416412e-05    3    1   14    2
 0.0003676548329783088    3    1   14    3
 0.0001252504181809452    3    1   14    4
 8.714163880861153e-05    3    1   14    5
 0.0002274961961432891    3    1   14    6
 -6.582435766062693e-05    3    1   14    7
 -4.629304602984524e-05    3    1   14    8
 -0.0001245787302736176    3    1   14    9
 5.446187834528297e-05    3    1   14   10
 0.0002899867097630898    3    1   14   11
 8.024149118286954e-05    3    1   14   12
 -0.0001941183546006008    3    1   14   13
 0.007024406634977626    3    1   14   14
 0.0001473305420594254    3    1   15    1
 7.325831011268942e-05    3    1   15    2
 0.000147321622892812    3    1   15    3
 0.0001176934190537675    3    1   15    4
 -0.0001176830952137356    3    1   15    5
 3.754470103252239e-05    3    1   15    6
 0.0003223445615663827    3    1   15    7
 -0.0002646674075295577    3    1   15    8
 -0.0001671586833107298    3    1   15    9
 -0.0002414804460452682    3    1   15   10
 -4.783568232605508e-05    3    1   15   11
 7.325475400829895e-05    3    1   15   12
 -8.209611672981912e-05    3    1   15   13
 3.753970200265285e-05    3    1   15   14
 -0.0002748480935616248    3    1   15   15
 0.001635377202834245    3    2    1    1
 4.628936132043062e-05    3    2    2    1
 -0.005144084004406861    3    2    2    2
 -3.965489333159995e-05    3    2    3    1
 0.0006000169555915918    3    2    3    2
 -0.005168702039567765    3    2    3    3
 -6.044061813537756e-05    3    2    4    1
 0.0003447602733552763    3    2    4    2
 0.0006325690887405123    3    2    4    3
 -0.0006708472845663174    3    2    4    4
 -0.0002225270575288898    3    2    5    1
 -3.872403863438022e-05    3    2    5    2
 4.627818076975137e-05    3    2    5    3
 8.618711388497192e-05    3    2    5    4
 0.001642319920104143    3    2    5    5
 8.714500560630929e-05    3    2    6    1
 0.0006334555999787378    3    2    6    2
 0.0003465397044454666    3    2    6    3
 0.000322563306351469    3    2    6    4
 -6.073041952994598e-05    3    2    6    5
 -0.0006747120931027792    3    2    6    6
 -3.54714695806294e-05    3    2    7    1
 8.193722321202037e-05    3    2    7    2
 -8.389898161002281e-05    3    2    7    3
 -8.31284635283846e-05    3    2    7    4
 3.294471892813275e-05    3    2    7    5
 8.516387543731378e-05    3    2    7    6
 0.007593288843992719    3    2    7    7
 -0.0002371323306967248    3    2    8    1
 -0.0007298168464833527    3    2    8    2
 -0.001002734401860501    3    2    8    3
 -0.0008272482357785643    3    2    8    4
 0.0002900517719100311    3    2    8    5
 -0.0005381452251190136    3    2    8    6
 -5.201621732054037e-05    3    2    8    7
 0.008734722362746071    3    2    8    8
 -0.0006711245764523996    3    2    9    1
 0.0006845091714675861    3    2    9    2
 6.137232789957882e-06    3    2    9    3
 -9.065578459972913e-05    3    2    9    4
 0.0006485854134656722    3    2    9    5
 0.0006362866802975123    3    2    9    6
 -0.0001220926330289827    3    2    9    7
 -0.0002327501121665086    3    2    9    8
 0.008244402581055474    3    2    9    9
 -7.12852787237288e-05    3    2   10    1
 0.0006021013288544456    3    2   10    2
 8.916687205578793e-06    3    2   10    3
 3.426658138900985e-05    3    2   10    4
 -0.0002096262755769933    3    2   10    5
 -0.0003962471713255123    3    2   10    6
 -0.0006372246317517779    3    2   10    7
 -0.0004393345927894405    3    2   10    8
 -0.0002606024676203351    3    2   10    9
 0.008267900094665387    3    2   10   10
 0.0002902958089513099    3    2   11    1
 -0.0003771169753309433    3    2   11    2
 -0.0007080059802571752    3    2   11    3
 0.0004440901576747531    3    2   11    4
 0.0002143443550514275    3    2   11    5
 0.0002007023546242872    3    2   11    6
 -0.0003621622463648975    3    2   11    7
 0.0004300038548136431    3    2   11    8
 -0.0004169458671073106    3    2   11    9
 0.0003688115414122163    3    2   11   10
 0.007803981901159523    3    2   11   11
 0.0001392503743224208    3    2   12    1
 5.223244748033889e-05    3    2   12    2
 -7.55590439648468e-05    3    2   12    3
 -0.0002018087009603715    3    2   12    4
 4.124661755633591e-06    3    2   12    5
 -0.0001028547868448848    3    2   12    6
 -0.0001735618730838153    3    2   12    7
 8.822176648957633e-05    3    2   12    8
 -0.0007036780344769396    3    2   12    9
 0.0003601844685423883    3    2   12   10
 0.0003259204649088057    3    2   12   11
 0.0006675195063396575    3    2   12   12
 3.318025356966443e-06    3    2   13    1
 -7.637880186770049e-05    3    2   13    2
 4.945673479871795e-05    3    2   13    3
 -0.0001028500097280364    3    2   13    4
 0.0001384854558346236    3    2   13    5
 -0.0002013246417681295    3    2   13    6
 0.0001726976498213961    3    2   13    7
 0.0005495953447345356    3    2   13    8
 0.0004504438704709    3    2   13    9
 -0.0004633234836537705    3    2   13   10
 -0.0001352537108384837    3    2   13   11
 2.349706648232632e-05    3    2   13   12
 0.0006563759760943718    3    2   13   13
 4.419792638893773e-05    3    2   14    1
 -0.0001968455099980068    3    2   14    2
 -0.0001473315872597637    3    2   14    3
 -5.730600983632058e-05    3    2   14    4
 -0.0001006360821087541    3    2   14    5
 0.000132431195834196    3    2   14    6
 -5.24391348015533e-05    3    2   14    7
 0.0001339243042271994    3    2   14    8
 -0.0006358168594820563    3    2   14    9
 -0.0002486663826191789    3    2   14   10
 -0.0002150972783455121    3    2   14   11
 0.0003020087645303921    3    2   14   12
 5.303451753112212e-05    3    2   14   13
 0.001467137751458281    3    2   14   14
 0.0001006308748794841    3    2   15    1
 0.0001490425340540329    3    2   15    2
 0.0001977072250675814    3    2   15    3
 -0.0001329731275611225    3    2   15    4
 -4.192282597337068e-05    3    2   15    5
 5.742189635274511e-05    3    2   15    6
 -5.652401929620126e-05    3    2   15    7
 -0.0005334316860651044    3    2   15    8
 -0.0003682760659801109    3    2   15    9
 -0.0003142074725991431    3    2   15   10
 -9.922977540924705e-05    3    2   15   11
 -5.151071354507861e-05    3    2   15   12
 -0.0003020399069269275    3    2   15   13
 -1.683589131779123e-05    3    2   15   14
 0.001473614869747172    3    2   15   15
 0.2197285553993321    3    3    1    1
 -0.001556048931654006    3    3    2    1
 0.1791526172444079    3    3    2    2
 -0.0002080174621729002    3    3    3    1
 -0.005168702039567712    3    3    3    2
 0.5589259035705737    3    3    3    3
 -0.0001818307289335557    3    3    4    1
 0.001143129912330811    3    3    4    2
 -0.008371813290992751    3    3    4    3
 0.2064582358363924    3    3    4    4
 -0.001689899129158839    3    3    5    1
 0.003513133164975638    3    3    5    2
 0.0008918051892962565    3    3    5    3
 -0.001507003345201339    3    3    5    4
 0.1544083079308581    3    3    5    5
 -0.007024317203384827    3    3    6    1
 0.0003086376761178428    3    3    6    2
 -0.008750585860402223    3    3    6    3
 -0.0006745739598483201    3    3    6    4
 0.001780057305922373    3    3    6    5
 0.3143892214734028    3    3    6    6
 -0.003532965761319996    3    3    7    1
 0.002295432818303674    3    3    7    2
 0.007905699217019611    3    3    7    3
 0.001455372812972443    3    3    7    4
 0.004200935063180553    3    3    7    5
 0.0007747450551773621    3    3    7    6
 0.304272485750966    3    3    7    7
 -0.001309888071914251    3    3    8    1
 -0.006080301090215746    3    3    8    2
 0.005913375928875055    3    3    8    3
 -0.00509081645071806    3    3    8    4
 0.002639127971551599    3    3    8    5
 -0.002123303290871497    3    3    8    6
 0.001204770626318033    3    3    8    7
 0.3033227529770239    3    3    8    8
 -0.00287761163441092    3    3    9    1
 0.004166751201327897    3    3    9    2
 -0.0003958089873788524    3    3    9    3
 0.0003330793271877281    3    3    9    4
 0.007365296586513886    3    3    9    5
 -0.0009212168877392613    3    3    9    6
 -7.984361198985051e-05    3    3    9    7
 -5.891334985260215e-05    3    3    9    8
 0.3024478108823603    3    3    9    9
 -0.002546656173877278    3    3   10    1
 0.002612971508925785    3    3   10    2
 0.001086999293844167    3    3   10    3
 0.0003967916222162269    3    3   10    4
 -0.00327289064878227    3    3   10    5
 0.001911460835520712    3    3   10    6
 -0.000845473017624888    3    3   10    7
 0.0004141216068954835    3    3   10    8
 -0.005642552510489985    3    3   10    9
 0.3014240740551806    3    3   10   10
 0.002924669195385088    3    3   11    1
 -0.003745073687284736    3    3   11    2
 0.009195831806550193    3    3   11    3
 0.003355359206418567    3    3   11    4
 0.003114621950579894    3    3   11    5
 -0.0006608739351067171    3    3   11    6
 -0.007096584696558695    3    3   11    7
 0.006653220090677941    3    3   11    8
 0.0002334388339479488    3    3   11    9
 0.0009417159843038249    3    3   11   10
 0.3092772248570218    3    3   11   11
 0.001635356516523875    3    3   12    1
 -0.002471553197336199    3    3   12    2
 0.0008916446612619192    3    3   12    3
 -0.001507149443610065    3    3   12    4
 -0.002231897993806112    3    3   12    5
 -0.0006563864100013707    3    3   12    6
 0.004186287100293174    3    3   12    7
 0.001652422399885937    3    3   12    8
 -0.007655030122904404    3    3   12    9
 0.00390885711033918    3    3   12   10
 0.00226554831632826    3    3   12   11
 0.1544083020751992    3    3   12   12
 -0.002213446328761908    3    3   13    1
 0.001895044562180009    3    3   13    2
 0.008750431085854219    3    3   13    3
 0.0006746351329883458    3    3   13    4
 0.0006563786759539733    3    3   13    5
 0.00691961587757454    3    3   13    6
 -0.0007765275496198149    3    3   13    7
 0.001984814489210124    3    3   13    8
 -0.001189805215681442    3    3   13    9
 0.002012970413868553    3    3   13   10
 0.0001971234421188329    3    3   13   11
 -0.001780124463102669    3    3   13   12
 0.3143887755629823    3    3   13   13
 0.0007710172765561397    3    3   14    1
 -0.001467140394033495    3    3   14    2
 0.0002079878882170145    3    3   14    3
 0.0001816610946023065    3    3   14    4
 -0.001635354896966134    3    3   14    5
 -0.002213327357597101    3    3   14    6
 0.003527018727274936    3    3   14    7