[Molden Format]
made by pyscf v[2.0.1]
[Atoms] (AU)
C   1   6     1.37005144030967     0.00000000000000     0.00000000000000
C   2   6    -1.37005144030967     0.00000000000000     0.00000000000000
C   3   6     2.63616794376826     2.19297811229174     0.00000000000000
C   4   6    -2.63616794376826    -2.19297811229174     0.00000000000000
H   5   1     2.39050354757480    -1.76747489647394     0.00000000000000
H   6   1    -2.39050354757480     1.76747489647394     0.00000000000000
C   7   6     5.37627082438760     2.19297811229174     0.00000000000000
C   8   6    -5.37627082438760    -2.19297811229174     0.00000000000000
H   9   1     1.61571583650313     3.96045300876567     0.00000000000000
H   10   1    -1.61571583650313    -3.96045300876567     0.00000000000000
C   11   6     6.64238732784619     4.38595622458347     0.00000000000000
C   12   6    -6.64238732784619    -4.38595622458347     0.00000000000000
H   13   1     6.39672293165273     0.42550321581780     0.00000000000000
H   14   1    -6.39672293165273    -0.42550321581780     0.00000000000000
C   15   6     9.38249020846553     4.38595622458347     0.00000000000000
C   16   6    -9.38249020846553    -4.38595622458347     0.00000000000000
H   17   1     5.62193522058106     6.15343112105741     0.00000000000000
H   18   1    -5.62193522058106    -6.15343112105741     0.00000000000000
C   19   6    10.64860671192412     6.57893433687521     0.00000000000000
C   20   6   -10.64860671192412    -6.57893433687521     0.00000000000000
H   21   1    10.40294231573067     2.61848132810954     0.00000000000000
H   22   1   -10.40294231573067    -2.61848132810954     0.00000000000000
H   23   1    12.68951092645439     6.57893433687521     0.00000000000000
H   24   1   -12.68951092645439    -6.57893433687521     0.00000000000000
H   25   1     9.62815460465899     8.34640923334915     0.00000000000000
H   26   1    -9.62815460465899    -8.34640923334915     0.00000000000000
[GTO]
1 0
 s    6 1.00
             3047.5249  0.0018347001629433
             457.36951    0.01403730124668
             103.94869   0.068842606114048
             29.210155    0.23218442062076
              9.286663    0.46794134155879
              3.163927    0.36231203217765
 s    3 1.00
             7.8682724   -0.11933240861517
             1.8812885   -0.16085421161283
             0.5442493     1.1434564825515
 s    1 1.00
             0.1687144                   1
 p    3 1.00
             7.8682724   0.068999095584993
             1.8812885    0.31642397975315
             0.5442493    0.74430825237435
 p    1 1.00
             0.1687144                   1

2 0
 s    6 1.00
             3047.5249  0.0018347001629433
             457.36951    0.01403730124668
             103.94869   0.068842606114048
             29.210155    0.23218442062076
              9.286663    0.46794134155879
              3.163927    0.36231203217765
 s    3 1.00
             7.8682724   -0.11933240861517
             1.8812885   -0.16085421161283
             0.5442493     1.1434564825515
 s    1 1.00
             0.1687144                   1
 p    3 1.00
             7.8682724   0.068999095584993
             1.8812885    0.31642397975315
             0.5442493    0.74430825237435
 p    1 1.00
             0.1687144                   1

3 0
 s    6 1.00
             3047.5249  0.0018347001629433
             457.36951    0.01403730124668
             103.94869   0.068842606114048
             29.210155    0.23218442062076
              9.286663    0.46794134155879
              3.163927    0.36231203217765
 s    3 1.00
             7.8682724   -0.11933240861517
             1.8812885   -0.16085421161283
             0.5442493     1.1434564825515
 s    1 1.00
             0.1687144                   1
 p    3 1.00
             7.8682724   0.068999095584993
             1.8812885    0.31642397975315
             0.5442493    0.74430825237435
 p    1 1.00
             0.1687144                   1

4 0
 s    6 1.00
             3047.5249  0.0018347001629433
             457.36951    0.01403730124668
             103.94869   0.068842606114048
             29.210155    0.23218442062076
              9.286663    0.46794134155879
              3.163927    0.36231203217765
 s    3 1.00
             7.8682724   -0.11933240861517
             1.8812885   -0.16085421161283
             0.5442493     1.1434564825515
 s    1 1.00
             0.1687144                   1
 p    3 1.00
             7.8682724   0.068999095584993
             1.8812885    0.31642397975315
             0.5442493    0.74430825237435
 p    1 1.00
             0.1687144                   1

5 0
 s    3 1.00
             18.731137    0.03349459952309
             2.8253937    0.23472694665786
             0.6401217    0.81375731841339
 s    1 1.00
             0.1612778                   1

6 0
 s    3 1.00
             18.731137    0.03349459952309
             2.8253937    0.23472694665786
             0.6401217    0.81375731841339
 s    1 1.00
             0.1612778                   1

7 0
 s    6 1.00
             3047.5249  0.0018347001629433
             457.36951    0.01403730124668
             103.94869   0.068842606114048
             29.210155    0.23218442062076
              9.286663    0.46794134155879
              3.163927    0.36231203217765
 s    3 1.00
             7.8682724   -0.11933240861517
             1.8812885   -0.16085421161283
             0.5442493     1.1434564825515
 s    1 1.00
             0.1687144                   1
 p    3 1.00
             7.8682724   0.068999095584993
             1.8812885    0.31642397975315
             0.5442493    0.74430825237435
 p    1 1.00
             0.1687144                   1

8 0
 s    6 1.00
             3047.5249  0.0018347001629433
             457.36951    0.01403730124668
             103.94869   0.068842606114048
             29.210155    0.23218442062076
              9.286663    0.46794134155879
              3.163927    0.36231203217765
 s    3 1.00
             7.8682724   -0.11933240861517
             1.8812885   -0.16085421161283
             0.5442493     1.1434564825515
 s    1 1.00
             0.1687144                   1
 p    3 1.00
             7.8682724   0.068999095584993
             1.8812885    0.31642397975315
             0.5442493    0.74430825237435
 p    1 1.00
             0.1687144                   1

9 0
 s    3 1.00
             18.731137    0.03349459952309
             2.8253937    0.23472694665786
             0.6401217    0.81375731841339
 s    1 1.00
             0.1612778                   1

10 0
 s    3 1.00
             18.731137    0.03349459952309
             2.8253937    0.23472694665786
             0.6401217    0.81375731841339
 s    1 1.00
             0.1612778                   1

11 0
 s    6 1.00
             3047.5249  0.0018347001629433
             457.36951    0.01403730124668
             103.94869   0.068842606114048
             29.210155    0.23218442062076
              9.286663    0.46794134155879
              3.163927    0.36231203217765
 s    3 1.00
             7.8682724   -0.11933240861517
             1.8812885   -0.16085421161283
             0.5442493     1.1434564825515
 s    1 1.00
             0.1687144                   1
 p    3 1.00
             7.8682724   0.068999095584993
             1.8812885    0.31642397975315
             0.5442493    0.74430825237435
 p    1 1.00
             0.1687144                   1

12 0
 s    6 1.00
             3047.5249  0.0018347001629433
             457.36951    0.01403730124668
             103.94869   0.068842606114048
             29.210155    0.23218442062076
              9.286663    0.46794134155879
              3.163927    0.36231203217765
 s    3 1.00
             7.8682724   -0.11933240861517
             1.8812885   -0.16085421161283
             0.5442493     1.1434564825515
 s    1 1.00
             0.1687144                   1
 p    3 1.00
             7.8682724   0.068999095584993
             1.8812885    0.31642397975315
             0.5442493    0.74430825237435
 p    1 1.00
             0.1687144                   1

13 0
 s    3 1.00
             18.731137    0.03349459952309
             2.8253937    0.23472694665786
             0.6401217    0.81375731841339
 s    1 1.00
             0.1612778                   1

14 0
 s    3 1.00
             18.731137    0.03349459952309
             2.8253937    0.23472694665786
             0.6401217    0.81375731841339
 s    1 1.00
             0.1612778                   1

15 0
 s    6 1.00
             3047.5249  0.0018347001629433
             457.36951    0.01403730124668
             103.94869   0.068842606114048
             29.210155    0.23218442062076
              9.286663    0.46794134155879
              3.163927    0.36231203217765
 s    3 1.00
             7.8682724   -0.11933240861517
             1.8812885   -0.16085421161283
             0.5442493     1.1434564825515
 s    1 1.00
             0.1687144                   1
 p    3 1.00
             7.8682724   0.068999095584993
             1.8812885    0.31642397975315
             0.5442493    0.74430825237435
 p    1 1.00
             0.1687144                   1

16 0
 s    6 1.00
             3047.5249  0.0018347001629433
             457.36951    0.01403730124668
             103.94869   0.068842606114048
             29.210155    0.23218442062076
              9.286663    0.46794134155879
              3.163927    0.36231203217765
 s    3 1.00
             7.8682724   -0.11933240861517
             1.8812885   -0.16085421161283
             0.5442493     1.1434564825515
 s    1 1.00
             0.1687144                   1
 p    3 1.00
             7.8682724   0.068999095584993
             1.8812885    0.31642397975315
             0.5442493    0.74430825237435
 p    1 1.00
             0.1687144                   1

17 0
 s    3 1.00
             18.731137    0.03349459952309
             2.8253937    0.23472694665786
             0.6401217    0.81375731841339
 s    1 1.00
             0.1612778                   1

18 0
 s    3 1.00
             18.731137    0.03349459952309
             2.8253937    0.23472694665786
             0.6401217    0.81375731841339
 s    1 1.00
             0.1612778                   1

19 0
 s    6 1.00
             3047.5249  0.0018347001629433
             457.36951    0.01403730124668
             103.94869   0.068842606114048
             29.210155    0.23218442062076
              9.286663    0.46794134155879
              3.163927    0.36231203217765
 s    3 1.00
             7.8682724   -0.11933240861517
             1.8812885   -0.16085421161283
             0.5442493     1.1434564825515
 s    1 1.00
             0.1687144                   1
 p    3 1.00
             7.8682724   0.068999095584993
             1.8812885    0.31642397975315
             0.5442493    0.74430825237435
 p    1 1.00
             0.1687144                   1

20 0
 s    6 1.00
             3047.5249  0.0018347001629433
             457.36951    0.01403730124668
             103.94869   0.068842606114048
             29.210155    0.23218442062076
              9.286663    0.46794134155879
              3.163927    0.36231203217765
 s    3 1.00
             7.8682724   -0.11933240861517
             1.8812885   -0.16085421161283
             0.5442493     1.1434564825515
 s    1 1.00
             0.1687144                   1
 p    3 1.00
             7.8682724   0.068999095584993
             1.8812885    0.31642397975315
             0.5442493    0.74430825237435
 p    1 1.00
             0.1687144                   1

21 0
 s    3 1.00
             18.731137    0.03349459952309
             2.8253937    0.23472694665786
             0.6401217    0.81375731841339
 s    1 1.00
             0.1612778                   1

22 0
 s    3 1.00
             18.731137    0.03349459952309
             2.8253937    0.23472694665786
             0.6401217    0.81375731841339
 s    1 1.00
             0.1612778                   1

23 0
 s    3 1.00
             18.731137    0.03349459952309
             2.8253937    0.23472694665786
             0.6401217    0.81375731841339
 s    1 1.00
             0.1612778                   1

24 0
 s    3 1.00
             18.731137    0.03349459952309
             2.8253937    0.23472694665786
             0.6401217    0.81375731841339
 s    1 1.00
             0.1612778                   1

25 0
 s    3 1.00
             18.731137    0.03349459952309
             2.8253937    0.23472694665786
             0.6401217    0.81375731841339
 s    1 1.00
             0.1612778                   1

26 0
 s    3 1.00
             18.731137    0.03349459952309
             2.8253937    0.23472694665786
             0.6401217    0.81375731841339
 s    1 1.00
             0.1612778                   1

[5d]
[7f]
[9g]

[MO]
 Sym= Au
 Ene=               0
 Spin= Alpha
 Occup=    1.00000
   1                     0
   2                     0
   3                     0
   4                     0
   5                     0
   6      0.20862893972141
   7                     0
   8                     0
   9      0.13048508761329
  10                     0
  11                     0
  12                     0
  13                     0
  14                     0
  15      0.20862893972141
  16                     0
  17                     0
  18      0.13048508761329
  19                     0
  20                     0
  21                     0
  22                     0
  23                     0
  24      0.19895368487229
  25                     0
  26                     0
  27      0.12486544590954
  28                     0
  29                     0
  30                     0
  31                     0
  32                     0
  33      0.19895368487229
  34                     0
  35                     0
  36      0.12486544590954
  37                     0
  38                     0
  39                     0
  40                     0
  41                     0
  42                     0
  43                     0
  44                     0
  45                     0
  46      0.16875788575452
  47                     0
  48                     0
  49      0.10504562382076
  50                     0
  51                     0
  52                     0
  53                     0
  54                     0
  55      0.16875788575452
  56                     0
  57                     0
  58      0.10504562382076
  59                     0
  60                     0
  61                     0
  62                     0
  63                     0
  64                     0
  65                     0
  66                     0
  67                     0
  68      0.14220522553834
  69                     0
  70                     0
  71     0.089644513943541
  72                     0
  73                     0
  74                     0
  75                     0
  76                     0
  77      0.14220522553834
  78                     0
  79                     0
  80     0.089644513943541
  81                     0
  82                     0
  83                     0
  84                     0
  85                     0
  86                     0
  87                     0
  88                     0
  89                     0
  90     0.089942318452438
  91                     0
  92                     0
  93     0.054585113691972
  94                     0
  95                     0
  96                     0
  97                     0
  98                     0
  99     0.089942318452438
 100                     0
 101                     0
 102     0.054585113691972
 103                     0
 104                     0
 105                     0
 106                     0
 107                     0
 108                     0
 109                     0
 110                     0
 111                     0
 112     0.056187653016875
 113                     0
 114                     0
 115     0.035808096734436
 116                     0
 117                     0
 118                     0
 119                     0
 120                     0
 121     0.056187653016875
 122                     0
 123                     0
 124     0.035808096734436
 125                     0
 126                     0
 127                     0
 128                     0
 129                     0
 130                     0
 131                     0
 132                     0
 133                     0
 134                     0
 135                     0
 136                     0
 Sym= Bg
 Ene=               1
 Spin= Alpha
 Occup=    1.00000
   1                     0
   2                     0
   3                     0
   4                     0
   5                     0
   6     0.063164628321675
   7                     0
   8                     0
   9     0.043712215807569
  10                     0
  11                     0
  12                     0
  13                     0
  14                     0
  15    -0.063164628321675
  16                     0
  17                     0
  18    -0.043712215807569
  19                     0
  20                     0
  21                     0
  22                     0
  23                     0
  24      0.13048300779142
  25                     0
  26                     0
  27     0.083137303195785
  28                     0
  29                     0
  30                     0
  31                     0
  32                     0
  33     -0.13048300779142
  34                     0
  35                     0
  36    -0.083137303195785
  37                     0
  38                     0
  39                     0
  40                     0
  41                     0
  42                     0
  43                     0
  44                     0
  45                     0
  46      0.20163432745661
  47                     0
  48                     0
  49      0.13267262249984
  50                     0
  51                     0
  52                     0
  53                     0
  54                     0
  55     -0.20163432745661
  56                     0
  57                     0
  58     -0.13267262249984
  59                     0
  60                     0
  61                     0
  62                     0
  63                     0
  64                     0
  65                     0
  66                     0
  67                     0
  68      0.20964617629917
  69                     0
  70                     0
  71      0.13669674291164
  72                     0
  73                     0
  74                     0
  75                     0
  76                     0
  77     -0.20964617629917
  78                     0
  79                     0
  80     -0.13669674291164
  81                     0
  82                     0
  83                     0
  84                     0
  85                     0
  86                     0
  87                     0
  88                     0
  89                     0
  90      0.16460852095777
  91                     0
  92                     0
  93      0.10475249358836
  94                     0
  95                     0
  96                     0
  97                     0
  98                     0
  99     -0.16460852095777
 100                     0
 101                     0
 102     -0.10475249358836
 103                     0
 104                     0
 105                     0
 106                     0
 107                     0
 108                     0
 109                     0
 110                     0
 111                     0
 112      0.11225236728691
 113                     0
 114                     0
 115     0.074548736002426
 116                     0
 117                     0
 118                     0
 119                     0
 120                     0
 121     -0.11225236728691
 122                     0
 123                     0
 124    -0.074548736002426
 125                     0
 126                     0
 127                     0
 128                     0
 129                     0
 130                     0
 131                     0
 132                     0
 133                     0
 134                     0
 135                     0
 136                     0
 Sym= Au
 Ene=               2
 Spin= Alpha
 Occup=    1.00000
   1                     0
   2                     0
   3                     0
   4                     0
   5                     0
   6      -0.1884287556553
   7                     0
   8                     0
   9     -0.12990249091327
  10                     0
  11                     0
  12                     0
  13                     0
  14                     0
  15      -0.1884287556553
  16                     0
  17                     0
  18     -0.12990249091327
  19                     0
  20                     0
  21                     0
  22                     0
  23                     0
  24     -0.11676548940208
  25                     0
  26                     0
  27     -0.08465267258053
  28                     0
  29                     0
  30                     0
  31                     0
  32                     0
  33     -0.11676548940208
  34                     0
  35                     0
  36     -0.08465267258053
  37                     0
  38                     0
  39                     0
  40                     0
  41                     0
  42                     0
  43                     0
  44                     0
  45                     0
  46     0.069965197016363
  47                     0
  48                     0
  49     0.052670073180214
  50                     0
  51                     0
  52                     0
  53                     0
  54                     0
  55     0.069965197016363
  56                     0
  57                     0
  58     0.052670073180214
  59                     0
  60                     0
  61                     0
  62                     0
  63                     0
  64                     0
  65                     0
  66                     0
  67                     0
  68      0.15848129259516
  69                     0
  70                     0
  71      0.10774619447322
  72                     0
  73                     0
  74                     0
  75                     0
  76                     0
  77      0.15848129259516
  78                     0
  79                     0
  80      0.10774619447322
  81                     0
  82                     0
  83                     0
  84                     0
  85                     0
  86                     0
  87                     0
  88                     0
  89                     0
  90      0.20742906798695
  91                     0
  92                     0
  93      0.14227805287876
  94                     0
  95                     0
  96                     0
  97                     0
  98                     0
  99      0.20742906798695
 100                     0
 101                     0
 102      0.14227805287876
 103                     0
 104                     0
 105                     0
 106                     0
 107                     0
 108                     0
 109                     0
 110                     0
 111                     0
 112       0.1645272890897
 113                     0
 114                     0
 115      0.11641758194553
 116                     0
 117                     0
 118                     0
 119                     0
 120                     0
 121       0.1645272890897
 122                     0
 123                     0
 124      0.11641758194553
 125                     0
 126                     0
 127                     0
 128                     0
 129                     0
 130                     0
 131                     0
 132                     0
 133                     0
 134                     0
 135                     0
 136                     0
 Sym= Bg
 Ene=               3
 Spin= Alpha
 Occup=    1.00000
   1                     0
   2                     0
   3                     0
   4                     0
   5                     0
   6     -0.12557146557409
   7                     0
   8                     0
   9    -0.099315036317724
  10                     0
  11                     0
  12                     0
  13                     0
  14                     0
  15      0.12557146557409
  16                     0
  17                     0
  18     0.099315036317724
  19                     0
  20                     0
  21                     0
  22                     0
  23                     0
  24     -0.20232311009528
  25                     0
  26                     0
  27      -0.1520379898701
  28                     0
  29                     0
  30                     0
  31                     0
  32                     0
  33      0.20232311009528
  34                     0
  35                     0
  36       0.1520379898701
  37                     0
  38                     0
  39                     0
  40                     0
  41                     0
  42                     0
  43                     0
  44                     0
  45                     0
  46       -0.120564167419
  47                     0
  48                     0
  49    -0.087320730397633
  50                     0
  51                     0
  52                     0
  53                     0
  54                     0
  55        0.120564167419
  56                     0
  57                     0
  58     0.087320730397633
  59                     0
  60                     0
  61                     0
  62                     0
  63                     0
  64                     0
  65                     0
  66                     0
  67                     0
  68    0.0047858525724187
  69                     0
  70                     0
  71    -0.0012313317117972
  72                     0
  73                     0
  74                     0
  75                     0
  76                     0
  77    -0.0047858525724187
  78                     0
  79                     0
  80    0.0012313317117972
  81                     0
  82                     0
  83                     0
  84                     0
  85                     0
  86                     0
  87                     0
  88                     0
  89                     0
  90      0.20569329129801
  91                     0
  92                     0
  93      0.15532550567877
  94                     0
  95                     0
  96                     0
  97                     0
  98                     0
  99     -0.20569329129801
 100                     0
 101                     0
 102     -0.15532550567877
 103                     0
 104                     0
 105                     0
 106                     0
 107                     0
 108                     0
 109                     0
 110                     0
 111                     0
 112       0.2048022071017
 113                     0
 114                     0
 115      0.15696322107752
 116                     0
 117                     0
 118                     0
 119                     0
 120                     0
 121      -0.2048022071017
 122                     0
 123                     0
 124     -0.15696322107752
 125                     0
 126                     0
 127                     0
 128                     0
 129                     0
 130                     0
 131                     0
 132                     0
 133                     0
 134                     0
 135                     0
 136                     0
 Sym= Au
 Ene=               4
 Spin= Alpha
 Occup=    1.00000
   1                     0
   2                     0
   3                     0
   4                     0
   5                     0
   6      0.14293387629086
   7                     0
   8                     0
   9      0.11470658901772
  10                     0
  11                     0
  12                     0
  13                     0
  14                     0
  15      0.14293387629086
  16                     0
  17                     0
  18      0.11470658901772
  19                     0
  20                     0
  21                     0
  22                     0
  23                     0
  24     0.014324036639991
  25                     0
  26                     0
  27     0.017623465277349
  28                     0
  29                     0
  30                     0
  31                     0
  32                     0
  33     0.014324036639991
  34                     0
  35                     0
  36     0.017623465277349
  37                     0
  38                     0
  39                     0
  40                     0
  41                     0
  42                     0
  43                     0
  44                     0
  45                     0
  46     -0.21405237312811
  47                     0
  48                     0
  49     -0.17766592319734
  50                     0
  51                     0
  52                     0
  53                     0
  54                     0
  55     -0.21405237312811
  56                     0
  57                     0
  58     -0.17766592319734
  59                     0
  60                     0
  61                     0
  62                     0
  63                     0
  64                     0
  65                     0
  66                     0
  67                     0
  68      -0.1643646865286
  69                     0
  70                     0
  71     -0.13992099799952
  72                     0
  73                     0
  74                     0
  75                     0
  76                     0