 &FCI NORB=  12,NELEC=12,MS2=0,
  ORBSYM=1,1,1,1,1,1,1,1,1,1,1,1,
  ISYM=1,
 &END
 0.2277263312835292    1    1    1    1
 0.1825817796716813    1    1    2    2
 -0.04408057867370843    1    1    3    1
 0.1789854322379912    1    1    3    3
 -0.04565705651370817    1    1    4    2
 0.1756413076368133    1    1    4    4
 0.0002205239146814584    1    1    5    1
 -0.04661978608712346    1    1    5    3
 0.1697970108882135    1    1    5    5
 0.0007055624123952435    1    1    6    2
 -0.04810785400996118    1    1    6    4
 0.2040677110411185    1    1    6    6
 0.0001451301914908034    1    1    7    1
 0.00355529956585995    1    1    7    3
 -0.03496074016210463    1    1    7    5
 0.2041002201419671    1    1    7    7
 0.001563273264341281    1    1    8    2
 -0.008813279029346918    1    1    8    4
 -0.034776305075802    1    1    8    6
 0.1687116022979019    1    1    8    8
 -0.0006765586637901776    1    1    9    1
 0.004456762641308906    1    1    9    3
 0.007857335673072157    1    1    9    5
 0.04998683950639099    1    1    9    7
 0.1766670176846652    1    1    9    9
 0.002692166351297908    1    1   10    2
 0.003709127263661527    1    1   10    4
 -0.004673088245804512    1    1   10    6
 0.0470669773712457    1    1   10    8
 0.1794118193857564    1    1   10   10
 0.001601697931496067    1    1   11    2
 -0.001181706696366475    1    1   11    4
 -0.0001232285466638666    1    1   11    6
 -0.003513234415666058    1    1   11    8
 -0.03912766906998205    1    1   11   10
 0.2396144565152808    1    1   11   11
 -0.001990737166624439    1    1   12    1
 -0.002104685575965463    1    1   12    3
 0.002282010359315258    1    1   12    5
 0.002106558201527837    1    1   12    7
 0.04497803942609439    1    1   12    9
 0.1917831450985593    1    1   12   12
 0.08107764409426806    2    1    2    1
 0.05126417166798795    2    1    3    2
 -0.03041621323052834    2    1    4    1
 0.04938350525331756    2    1    4    3
 -0.03116577339374639    2    1    5    2
 0.0457037275941323    2    1    5    4
 0.001026512745026508    2    1    6    1
 -0.03277613658260882    2    1    6    3
 0.06657380032420693    2    1    6    5
 0.003312741916628101    2    1    7    2
 -0.02855409144799219    2    1    7    4
 0.03328097649139063    2    1    7    6
 0.001366069786975609    2    1    8    1
 -0.006603918837685628    2    1    8    3
 -0.0168935702627097    2    1    8    5
 0.06769964236516206    2    1    8    7
 0.003465573287075126    2    1    9    2
 -0.0007679014661412201    2    1    9    4
 0.02865861288801236    2    1    9    6
 -0.045013329335879    2    1    9    8
 0.002297796619889824    2    1   10    1
 -0.0004313343854017823    2    1   10    3
 0.005751241443922941    2    1   10    5
 0.03381405986409354    2    1   10    7
 0.05044103303868248    2    1   10    9
 -0.001645284766574979    2    1   11    1
 0.002170827308073026    2    1   11    3
 -0.002008237572656013    2    1   11    5
 -0.003125766199482839    2    1   11    7
 -0.03086805530019227    2    1   11    9
 0.000197049508650135    2    1   12    2
 -0.003027354001570468    2    1   12    4
 0.004337758918312028    2    1   12    6
 -0.03118302697443287    2    1   12    8
 -0.05904249871566995    2    1   12   10
 -0.07999248137558181    2    1   12   11
 0.1825817796716813    2    2    1    1
 0.1980180204616381    2    2    2    2
 0.01496939017759413    2    2    3    1
 0.1737185351367582    2    2    3    3
 -0.009726782908476436    2    2    4    2
 0.1695085873754064    2    2    4    4
 -0.02360589845264892    2    2    5    1
 -0.01396944223303506    2    2    5    3
 0.1797395203407029    2    2    5    5
 -0.02443155362959515    2    2    6    2
 -0.001383774704488483    2    2    6    4
 0.1803773357984428    2    2    6    6
 0.002663756789981261    2    2    7    1
 -0.02007531632690856    2    2    7    3
 -0.004686854801729001    2    2    7    5
 0.1818875480751549    2    2    7    7
 -0.003823904684736295    2    2    8    2
 -0.02257943356339616    2    2    8    4
 -0.00493142213353724    2    2    8    6
 0.1813600093091954    2    2    8    8
 0.00249050007841486    2    2    9    1
 0.002931821817515284    2    2    9    3
 0.02228544639127882    2    2    9    5
 0.002531059223876927    2    2    9    7
 0.1720005028969583    2    2    9    9
 0.001820408217913277    2    2   10    2
 0.002569986642816331    2    2   10    4
 0.01886112485055568    2    2   10    6
 0.01566398366244896    2    2   10    8
 0.1817823919451303    2    2   10   10
 -6.573743324349372e-05    2    2   11    2
 0.001753106545096711    2    2   11    4
 -0.004123923917860961    2    2   11    6
 0.02116022589788019    2    2   11    8
 0.01682495236639059    2    2   11   10
 0.183543031684363    2    2   11   11
 -0.000106911462167298    2    2   12    1
 -0.001500784383379028    2    2   12    3
 -0.002424913986060605    2    2   12    5
 -0.02413263585108968    2    2   12    7
 0.006807890743279951    2    2   12    9
 0.2031399094065828    2    2   12   12
 -0.04408057867370841    3    1    1    1
 0.01496939017759413    3    1    2    2
 0.0575642948293249    3    1    3    1
 -0.005147050636223168    3    1    3    3
 0.03509913895544157    3    1    4    2
 -0.00601315753746766    3    1    4    4
 -0.02317461235513142    3    1    5    1
 0.03189567229220881    3    1    5    3
 0.009738866344065936    3    1    5    5
 -0.02448679650112945    3    1    6    2
 0.04570745079914079    3    1    6    4
 -0.02326633447365673    3    1    6    6
 0.002401425583467365    3    1    7    1
 -0.02285422836600396    3    1    7    3
 0.02938676677745238    3    1    7    5
 -0.02175864212728394    3    1    7    7
 -0.005141072465638817    3    1    8    2
 -0.01344836735049817    3    1    8    4
 0.02902515118516592    3    1    8    6
 0.0123727421983979    3    1    8    8
 0.002941949670297353    3    1    9    1
 -0.001367396060600989    3    1    9    3
 0.01403775279714913    3    1    9    5
 -0.04641580120903738    3    1    9    7
 -0.004603197952914482    3    1    9    9
 -0.0007499540563680771    3    1   10    2
 -0.001055027486226832    3    1   10    4
 0.022787335832789    3    1   10    6
 -0.03069773618759506    3    1   10    8
 0.002257125819430656    3    1   10   10
 -0.001432460990932336    3    1   11    2
 0.00271722332282587    3    1   11    4
 -0.003838710661754582    3    1   11    6
 0.0240209065968049    3    1   11    8
 0.05457992459861106    3    1   11   10
 -0.05483816895859923    3    1   11   11
 0.001604445358487226    3    1   12    1
 0.0005477704621493382    3    1   12    3
 -0.004492081782944713    3    1   12    5
 -0.02557284899794699    3    1   12    7
 -0.03730322204790574    3    1   12    9
 0.0109444431281743    3    1   12   12
 0.05126417166798795    3    2    2    1
 0.06698078123042676    3    2    3    2
 0.01367907201625818    3    2    4    1
 0.04774632413840043    3    2    4    3
 -0.007434494292139073    3    2    5    2
 0.05576600695108649    3    2    5    4
 -0.01931483117897185    3    2    6    1
 0.001733692215949965    3    2    6    3
 0.05554818821254386    3    2    6    5
 -0.01563272675268604    3    2    7    2
 -0.004004853221466483    3    2    7    4
 0.02990601119696332    3    2    7    6
 -0.003338567759832418    3    2    8    1
 -0.01779730759298808    3    2    8    3
 0.006789368919565605    3    2    8    5
 0.05802051453410083    3    2    8    7
 0.002107451852846853    3    2    9    2
 0.01265537229097784    3    2    9    4
 0.004914754168211643    3    2    9    6
 -0.05780849586324358    3    2    9    8
 0.0002693527787683844    3    2   10    1
 -0.001191527432693769    3    2   10    3
 0.01761129810952079    3    2   10    5
 -0.0002096506153896206    3    2   10    7
 0.0516275297139208    3    2   10    9
 -0.001110135963623833    3    2   11    1
 0.000322912015522607    3    2   11    3
 0.001667971292591147    3    2   11    5
 0.01868305045862941    3    2   11    7
 0.01164308727696372    3    2   11    9
 0.001320216251453983    3    2   12    2
 -0.001679806668174014    3    2   12    4
 -0.01458740161435331    3    2   12    6
 -0.007536952544485757    3    2   12    8
 -0.06981304142535398    3    2   12   10
 -0.04573151612461162    3    2   12   11
 0.1789854322379912    3    3    1    1
 0.1737185351367582    3    3    2    2
 -0.005147050636223144    3    3    3    1
 0.1838460400563152    3    3    3    3
 0.004879117980156739    3    3    4    2
 0.1749766243803032    3    3    4    4
 0.009167975747644403    3    3    5    1
 -0.003487543568358834    3    3    5    3
 0.1721650098493239    3    3    5    5
 0.002355798102606597    3    3    6    2
 -0.00589732710176255    3    3    6    4
 0.1764047361188928    3    3    6    6
 -0.01329019645918964    3    3    7    1
 -0.0008202146246191321    3    3    7    3
 -0.005061698612144503    3    3    7    5
 0.17808787326365    3    3    7    7
 -0.01343862837110535    3    3    8    2
 -0.003055827822279285    3    3    8    4
 -0.005192543728880177    3    3    8    6
 0.1752127941277944    3    3    8    8
 0.0001687354172636658    3    3    9    1
 0.01410560082408336    3    3    9    3
 0.003089965110115458    3    3    9    5
 0.005350107107353313    3    3    9    7
 0.1795321182522946    3    3    9    9
 0.0005680504655075828    3    3   10    2
 0.01359381984970029    3    3   10    4
 0.001127735092200596    3    3   10    6
 0.001694202995202781    3    3   10    8
 0.1858025515995434    3    3   10   10
 0.0001460643955229222    3    3   11    2
 -0.0008335043358693682    3    3   11    4
 0.01183418073267966    3    3   11    6
 -0.008846439865959004    3    3   11    8
 -0.005907816523867699    3    3   11   10
 0.1830021988520496    3    3   11   11
 -0.0002839409912323241    3    3   12    1
 -0.0002155157656725145    3    3   12    3
 -0.01218752418317126    3    3   12    5
 0.003216804958763331    3    3   12    7
 -0.004187271151256501    3    3   12    9
 0.1763551262456075    3    3   12   12
 -0.03041621323052835    4    1    2    1
 0.01367907201625818    4    1    3    2
 0.04277641824702527    4    1    4    1
 -0.002690248796807852    4    1    4    3
 0.02354262495767694    4    1    5    2
 0.008841087211262153    4    1    5    4
 -0.01935708421616551    4    1    6    1
 0.03413623150373088    4    1    6    3
 -0.01237289315737786    4    1    6    5
 -0.01759551655710923    4    1    7    2
 0.02375589593209849    4    1    7    4
 -0.003926769400110964    4    1    7    6
 -0.004070993620693752    4    1    8    1
 -0.01055894136463118    4    1    8    3
 0.0228905093920948    4    1    8    5
 -0.01102302211596872    4    1    8    7
 -0.001149177324772612    4    1    9    2
 0.01264347310613839    4    1    9    4
 -0.02310195195112554    4    1    9    6
 -0.01145213861999003    4    1    9    8
 -0.001348645947919268    4    1   10    1
 -0.0006992207020076701    4    1   10    3
 0.01111130338287717    4    1   10    5
 -0.0336970873001823    4    1   10    7
 -6.919379585629731e-05    4    1   10    9
 0.0002534993959245496    4    1   11    1
 -0.001230328125944023    4    1   11    3
 0.00313998423031552    4    1   11    5
 0.02086781839156119    4    1   11    7
 0.04134721143329503    4    1   11    9
 0.0006841720615495527    4    1   12    2
 0.001214247090162509    4    1   12    4
 -0.01765271390255013    4    1   12    6
 0.02347178298954805    4    1   12    8
 -0.008746582097568765    4    1   12   10
 0.03474352310228237    4    1   12   11
 -0.04565705651370817    4    2    1    1
 -0.009726782908476414    4    2    2    2
 0.03509913895544158    4    2    3    1
 0.004879117980156719    4    2    3    3
 0.04778141489652643    4    2    4    2
 -0.0001734679266530157    4    2    4    4
 0.01011918899695996    4    2    5    1
 0.0410384645003594    4    2    5    3
 0.001776235213937485    4    2    5    5
 0.003265300122109526    4    2    6    2
 0.03925751369334469    4    2    6    4
 -0.02638523061521006    4    2    6    6
 -0.01293330902783028    4    2    7    1
 -0.002776856983400348    4    2    7    3
 0.0273983761186075    4    2    7    5
 -0.02465205772953033    4    2    7    7
 -0.01402415135082968    4    2    8    2
 0.006166487855639854    4    2    8    4
 0.02726743980054034    4    2    8    6
 0.005728717625322054    4    2    8    8
 0.000698452852377588    4    2    9    1
 0.009707097344311362    4    2    9    3
 -0.005402044384909141    4    2    9    5
 -0.04162747460699109    4    2    9    7
 0.003137544590556688    4    2    9    9
 -0.001438295549968506    4    2   10    2
 0.009760413866025757    4    2   10    4
 0.004163543046581617    4    2   10    6
 -0.04332381564029739    4    2   10    8
 0.005865508088032925    4    2   10   10
 -0.0009358745167088309    4    2   11    2
 0.0001856604217451928    4    2   11    4
 0.01162360023003286    4    2   11    6
 -0.006587784764863627    4    2   11    8
 0.02970168635545896    4    2   11   10
 -0.05306455437877804    4    2   11   11
 0.001058502104298546    4    2   12    1
 0.001383357206089879    4    2   12    3
 -0.0135463733807876    4    2   12    5
 0.002760753697952713    4    2   12    7
 -0.04636457752311318    4    2   12    9
 -0.01612189295639811    4    2   12   12
 0.04938350525331757    4    3    2    1
 0.04774632413840043    4    3    3    2
 -0.002690248796807835    4    3    4    1
 0.06579478501056991    4    3    4    3
 0.01456063927908745    4    3    5    2
 0.05197821114334391    4    3    5    4
 0.01746175504497216    4    3    6    1
 -0.001142422022276826    4    3    6    3
 0.05382219390053389    4    3    6    5
 -0.0001599404050309249    4    3    7    2
 -0.003380127784673425    4    3    7    4
 0.02904406920211383    4    3    7    6
 -0.00920983931394777    4    3    8    1
 -0.001330017456190136    4    3    8    3
 0.007288604865223383    4    3    8    5
 0.05664235747687621    4    3    8    7
 0.01127515367153809    4    3    9    2
 -0.003390357249141316    4    3    9    4
 0.003797188721023878    4    3    9    6
 -0.05539616154202123    4    3    9    8
 0.000244276104885436    4    3   10    1
 0.009048643510342486    4    3   10    3
 0.001711744402347689    4    3   10    5
 -0.0005893379594966617    4    3   10    7
 0.06668169180213375    4    3   10    9
 -0.0008767697346928305    4    3   11    1
 -0.0002091837287274125    4    3   11    3
 0.008192547446021433    4    3   11    5
 -0.01660059247958061    4    3   11    7
 -0.007330167370785973    4    3   11    9
 0.001235810009015816    4    3   12    2
 -0.01083850200885138    4    3   12    4
 0.0004792392665434137    4    3   12    6
 0.01316692313616888    4    3   12    8
 -0.04827493426445734    4    3   12   10
 -0.04595885404465926    4    3   12   11
 0.1756413076368133    4    4    1    1
 0.1695085873754064    4    4    2    2
 -0.006013157537467658    4    4    3    1
 0.1749766243803032    4    4    3    3
 -0.0001734679266530157    4    4    4    2
 0.1816883311322974    4    4    4    4
 0.006616344859091438    4    4    5    1
 0.006402407376880063    4    4    5    3
 0.1701550781829227    4    4    5    5
 0.01200462825846037    4    4    6    2
 -0.005039545814779486    4    4    6    4
 0.1738824979082497    4    4    6    6
 0.007291440724570548    4    4    7    1
 -2.662539283953972e-05    4    4    7    3
 -0.003861634376977514    4    4    7    5
 0.1755687814552776    4    4    7    7
 0.0001907140735611713    4    4    8    2
 -0.001106395909559117    4    4    8    4
 -0.003984137952533073    4    4    8    6
 0.1736271773677213    4    4    8    8
 0.008450906434503882    4    4    9    1
 0.001765395045419844    4    4    9    3
 0.000929304662178704    4    4    9    5
 0.003953220650516006    4    4    9    7
 0.1845725870438036    4    4    9    9
 0.009203344606183812    4    4   10    2
 0.001887000207950774    4    4   10    4
 -0.001085539199577285    4    4   10    6
 -0.006643274160535694    4    4   10    8
 0.1766077464521362    4    4   10   10
 -0.000359525112372624    4    4   11    2
 0.007396891300128126    4    4   11    4
 -0.006713846391826019    4    4   11    6
 -0.005849100809310545    4    4   11    8
 -0.006490959804695415    4    4   11   10
 0.1798623414828607    4    4   11   11
 -7.053057026604133e-05    4    4   12    1
 -0.008838739296863452    4    4   12    3
 0.0008071108474013095    4    4   12    5
 0.01167007616091044    4    4   12    7
 0.001146229042564082    4    4   12    9
 0.1723110012796598    4    4   12   12
 0.0002205239146814626    5    1    1    1
 -0.02360589845264892    5    1    2    2
 -0.02317461235513142    5    1    3    1
 0.009167975747644413    5    1    3    3
 0.01011918899695997    5    1    4    2
 0.006616344859091448    5    1    4    4
 0.03181512869454912    5    1    5    1
 0.008186072061852359    5    1    5    3
 -0.008418110515985108    5    1    5    5
 0.02785135670057162    5    1    6    2
 -0.008408376866029603    5    1    6    4
 -0.001928948585395161    5    1    6    6
 -0.01256982174801605    5    1    7    1
 0.01862225244928898    5    1    7    3
 -0.002772709017484205    5    1    7    5
 -0.001811019571568289    5    1    7    7
 -0.007932893563302519    5    1    8    2
 0.01845707869391112    5    1    8    4
 -0.00257852024765441    5    1    8    6
 -0.007125151586474964    5    1    8    8
 -0.0004950179983035251    5    1    9    1
 0.009709158105135928    5    1    9    3
 -0.01833027525212704    5    1    9    5
 0.006718950335335928    5    1    9    7
 0.00826649522831229    5    1    9    9
 0.0003817883082995869    5    1   10    2
 0.009572371753046033    5    1   10    4
 -0.01757190761379624    5    1   10    6
 -0.01141120517427715    5    1   10    8
 0.002876056176747267    5    1   10   10
 -0.0002100885352702258    5    1   11    2
 -0.0008841386564769334    5    1   11    4
 0.01285327863284381    5    1   11    6
 -0.02940334650734822    5    1   11    8
 -0.02545598804182049    5    1   11   10
 0.003845788673286595    5    1   11   11
 0.0001746434706242872    5    1   12    1
 -0.0002987957415854884    5    1   12    3
 -0.008008617418330102    5    1   12    5
 0.02842879572683955    5    1   12    7
 -0.006617401809063829    5    1   12    9
 -0.02577459458891332    5    1   12   12
 -0.0311657733937464    5    2    2    1
 -0.007434494292139087    5    2    3    2
 0.02354262495767694    5    2    4    1
 0.01456063927908745    5    2    4    3
 0.04402013227620957    5    2    5    2
 0.003586264796659341    5    2    5    4
 0.01871384900342585    5    2    6    1
 0.02923509185869098    5    2    6    3
 -0.01477339215565567    5    2    6    5
 -0.0006575353570064166    5    2    7    2
 0.02212327180635699    5    2    7    4
 -0.004896564054345795    5    2    7    6
 -0.009432856612118404    5    2    8    1
 0.006102395020811097    5    2    8    3
 0.02142234090357593    5    2    8    5
 -0.01307437257377029    5    2    8    7
 0.008691535825735459    5    2    9    2
 -0.004126805454927726    5    2    9    4
 -0.02217579777452144    5    2    9    6
 -0.007391967590160937    5    2    9    8
 -0.0005151133700981416    5    2   10    1
 0.009751403078299539    5    2   10    3
 -0.005203986912099178    5    2   10    5
 -0.03212052910876536    5    2   10    7
 0.01397729758083659    5    2   10    9
 -8.554198725150488e-05    5    2   11    1
 -0.0009770776236739959    5    2   11    3
 0.009180942652544695    5    2   11    5
 -0.01585307583012107    5    2   11    7
 0.01967730909250264    5    2   11    9
 0.000278081625019051    5    2   12    2
 -0.008484081388729858    5    2   12    4
 -0.001080594548083725    5    2   12    6
 0.04275452104122636    5    2   12    8
 0.01448608482657307    5    2   12   10
 0.03316147886375841    5    2   12   11
 -0.04661978608712348    5    3    1    1
 -0.01396944223303506    5    3    2    2
 0.03189567229220881    5    3    3    1
 -0.003487543568358859    5    3    3    3
 0.04103846450035939    5    3    4    2
 0.006402407376880062    5    3    4    4
 0.008186072061852356    5    3    5    1
 0.04878450014869547    5    3    5    3
 -0.0004033821810505087    5    3    5    5
 0.01311245714241363    5    3    6    2
 0.0381706570216561    5    3    6    4
 -0.02800351652871812    5    3    6    6
 0.006845605780200271    5    3    7    1
 -0.001081335894691492    5    3    7    3
 0.02651207626676894    5    3    7    5
 -0.02611763535619132    5    3    7    7
 -0.0004374954069924705    5    3    8    2
 0.007797594940307165    5    3    8    4
 0.02658251283907236    5    3    8    6
 0.003840505115876586    5    3    8    8
 0.008333044814057791    5    3    9    1
 -0.00164840128212183    5    3    9    3
 -0.007474163078017416    5    3    9    5
 -0.04099113635917825    5    3    9    7
 0.007989836361341544    5    3    9    9
 0.007429622951279428    5    3   10    2
 -0.001217539871120583    5    3   10    4
 0.001075001418478031    5    3   10    6
 -0.04962737710674749    5    3   10    8
 -0.003150073434852122    5    3   10   10
 -0.0007866192303990118    5    3   11    2
 0.007730613786640783    5    3   11    4
 -0.006158894445926001    5    3   11    6
 -0.004313982544724742    5    3   11    8
 0.02700610861149381    5    3   11   10
 -0.05359979863304497    5    3   11   11
 0.0004913606640654992    5    3   12    1
 -0.007265533378856762    5    3   12    3
 -0.0005501334246599959    5    3   12    5
 0.01152301046282741    5    3   12    7
 -0.03935380028940768    5    3   12    9
 -0.02010642697720343    5    3   12   12
 0.04570372759413231    5    4    2    1
 0.05576600695108648    5    4    3    2
 0.008841087211262151    5    4    4    1
 0.05197821114334391    5    4    4    3
 0.003586264796659339    5    4    5    2
 0.06178743777286839    5    4    5    4
 -0.006307099343333654    5    4    6    1
 0.01160472047007329    5    4    6    3
 0.05300693820024472    5    4    6    5
 0.003548160451518462    5    4    7    2
 -0.0006748504471939488    5    4    7    4
 0.02844428556489035    5    4    7    6
 0.006695843347391973    5    4    8    1
 -0.002124675295674249    5    4    8    3
 0.0097622677621863    5    4    8    5
 0.05592009793076627    5    4    8    7
 -0.000269693493021598    5    4    9    2
 -0.00138133768014999    5    4    9    4
 0.001045590176539851    5    4    9    6
 -0.06338176547860794    5    4    9    8
 0.007121349413581128    5    4   10    1
 -0.001506184434318966    5    4   10    3
 0.001920771668575915    5    4   10    5
 -0.01021797094316283    5    4   10    7
 0.05395300593805753    5    4   10    9
 -0.0006053350770300408    5    4   11    1
 0.006647457558472225    5    4   11    3
 -0.00626595307402774    5    4   11    5
 0.007222746335328319    5    4   11    7
 0.006145211852133629    5    4   11    9
 -0.006439837212566475    5    4   12    2
 0.0006404350868963083    5    4   12    4
 0.002788960258910251    5    4   12    6
 0.002264115312878478    5    4   12    8
 -0.05758075587095689    5    4   12   10
 -0.04101950231627549    5    4   12   11
 0.1697970108882134    5    5    1    1
 0.1797395203407029    5    5    2    2
 0.009738866344065948    5    5    3    1
 0.1721650098493239    5    5    3    3
 0.001776235213937479    5    5    4    2
 0.1701550781829227    5    5    4    4
 -0.008418110515985108    5    5    5    1
 -0.0004033821810505052    5    5    5    3
 0.1801536291541014    5    5    5    5
 -0.01031673233055691    5    5    6    2
 0.009466214713531637    5    5    6    4
 0.1715905310245051    5    5    6    6
 -0.001058141935016496    5    5    7    1
 -0.0002615712901188104    5    5    7    3
 8.565846124882447e-05    5    5    7    5
 0.1731835952683585    5    5    7    7
 0.004179010197284297    5    5    8    2
 -0.004537221057621908    5    5    8    4
 -0.0002640145059696402    5    5    8    6
 0.1818461498388486    5    5    8    8
 -0.006313599341579788    5    5    9    1
 0.0001926643082609935    5    5    9    3
 0.00483324748951392    5    5    9    5
 -0.008434870860398468    5    5    9    7
 0.1729037025078166    5    5    9    9
 -0.0007135624285951477    5    5   10    2
 -0.0001236204505735625    5    5   10    4
 0.001074106980179103    5    5   10    6
 0.001329451894659    5    5   10    8
 0.1775740637790785    5    5   10   10
 0.005640102482613216    5    5   11    2
 -0.005987069987198746    5    5   11    4
 0.001084527386251884    5    5   11    6
 0.008089445511889554    5    5   11    8
 0.01023057472088265    5    5   11   10
 0.171388643148908    5    5   11   11
 -0.00592845739134337    5    5   12    1
 0.001204065801429515    5    5   12    3
 0.003651850898972459    5    5   12    5
 -0.01067020578432215    5    5   12    7
 -0.002770763735162425    5    5   12    9
 0.1835433125370502    5    5   12   12
 0.001026512745026509    6    1    2    1
 -0.01931483117897185    6    1    3    2
 -0.01935708421616551    6    1    4    1
 0.01746175504497215    6    1    4    3
 0.01871384900342586    6    1    5    2
 -0.006307099343333658    6    1    5    4
 0.03698303031066207    6    1    6    1
 -0.007511533301800311    6    1    6    3
 -0.00103125424101837    6    1    6    5
 0.01378200665808447    6    1    7    2
 -0.002072753589725425    6    1    7    4
 -0.0005456251843168119    6    1    7    6
 -0.007596312237218397    6    1    8    1
 0.0147049171517394    6    1    8    3
 -0.00204078917146642    6    1    8    5
 -0.0008452390097805637    6    1    8    7
 0.01019074460315627    6    1    9    2
 -0.0148665804548128    6    1    9    4
 0.001560480088030249    6    1    9    6
 0.005019258846069023    6    1    9    8
 -0.001010046296668667    6    1   10    1
 0.01074500704697661    6    1   10    3
 -0.01424619719984682    6    1   10    5
 0.004128691256526477    6    1   10    7
 0.01457140389863034    6    1   10    9
 -4.638815707451384e-05    6    1   11    1
 -0.001459259587838124    6    1   11    3
 0.007933288889296841    6    1   11    5
 -0.03604162793396502    6    1   11    7
 -0.02190268463199137    6    1   11    9
 0.001272261775876059    6    1   12    2
 -0.01014141764717386    6    1   12    4
 0.01378249767116259    6    1   12    6
 0.0177301761679199    6    1   12    8
 0.02129329890775317    6    1   12   10
 -0.003405574939235941    6    1   12   11
 0.0007055624123952246    6    2    1    1
 -0.02443155362959514    6    2    2    2
 -0.02448679650112944    6    2    3    1
 0.002355798102606603    6    2    3    3
 0.003265300122109522    6    2    4    2
 0.01200462825846037    6    2    4    4
 0.02785135670057163    6    2    5    1
 0.01311245714241363    6    2    5    3
 -0.01031673233055689    6    2    5    5
 0.03390732743555556    6    2    6    2
 -0.0105544930716382    6    2    6    4
 -0.002045902921427524    6    2    6    6
 0.004559973008242622    6    2    7    1
 0.01676503143791593    6    2    7    3
 -0.003453854500708464    6    2    7    5
 -0.001931483254146635    6    2    7    7
 0.002030448232855884    6    2    8    2
 0.0174139062705101    6    2    8    4
 -0.003189883649556958    6    2    8    6
 -0.00876046661679244    6    2    8    8
 0.0074072176203907    6    2    9    1
 0.0002712219225872618    6    2    9    3
 -0.01761717412316131    6    2    9    5
 0.008475406801111472    6    2    9    7
 0.01224925538413634    6    2    9    9
 0.007847294975628543    6    2   10    2
 0.0005751586781770773    6    2   10    4
 -0.01720369565599832    6    2   10    6
 -0.01502967386187304    6    2   10    8
 -0.00402341200734703    6    2   10   10
 -0.001341978011839925    6    2   11    2
 0.006815665052166915    6    2   11    4
 -0.002879944581255783    6    2   11    6
 -0.02546360738240317    6    2   11    8
 -0.0262823351476769    6    2   11   10
 0.004632296548217402    6    2   11   11
 0.001058883115131906    6    2   12    1
 -0.007738175974707376    6    2   12    3
 0.001765219668890274    6    2   12    5
 0.03371979063404022    6    2   12    7
 0.0002364952310045999    6    2   12    9
 -0.02622884428381366    6    2   12   12
 -0.03277613658260883    6    3    2    1
 0.00173369221594997    6    3    3    2
 0.03413623150373089    6    3    4    1
 -0.001142422022276815    6    3    4    3
 0.02923509185869098    6    3    5    2
 0.01160472047007329    6    3    5    4
 -0.007511533301800309    6    3    6    1
 0.03908442492507935    6    3    6    3
 -0.01607887516553341    6    3    6    5
 0.0008146734170226705    6    3    7    2
 0.02151445557133918    6    3    7    4
 -0.005055064189175297    6    3    7    6
 0.00572802902130388    6    3    8    1
 0.001565383139176472    6    3    8    3
 0.02137057273877467    6    3    8    5
 -0.01424047855859184    6    3    8    7
 -0.001510408429253573    6    3    9    2
 0.000373868780428919    6    3    9    4
 -0.02181122308385224    6    3    9    6
 -0.01352145405008287    6    3    9    8
 0.006887090986986552    6    3   10    1
 -0.0007615835769591745    6    3   10    3
 -0.00161277186769205    6    3   10    5
 -0.03878756210928274    6    3   10    7
 -0.0004459309442551754    6    3   10    9
 -0.001037575675683185    6    3   11    1
 0.006397179177985721    6    3   11    3
 -0.004970210469982304    6    3   11    5
 0.01012316711192181    6    3   11    7
 0.03263499873741497    6    3   11    9
 -0.006744420031538749    6    3   12    2
 0.001919451917878102    6    3   12    4
 -0.0006267892966526523    6    3   12    6
 0.02831382973461252    6    3   12    8
 0.003582788437442704    6    3   12   10
 0.03614229140246847    6    3   12   11
 -0.04810785400996114    6    4    1    1
 -0.001383774704488505    6    4    2    2
 0.0457074507991408    6    4    3    1
 -0.005897327101762562    6    4    3    3
 0.03925751369334469    6    4    4    2