 &FCI NORB=  12,NELEC=12,MS2=0,
  ORBSYM=1,1,1,1,1,1,1,1,1,1,1,1,
  ISYM=1,
 &END
 0.6189468558171523    1    1    1    1
 0.001355827291078664    1    1    2    1
 0.1412253035289331    1    1    2    2
 -0.000445064809564533    1    1    3    1
 -0.0005027777682769939    1    1    3    2
 0.1077043492455875    1    1    3    3
 -6.03156982461088e-05    1    1    4    1
 -4.227398852361969e-06    1    1    4    2
 4.253024143346834e-06    1    1    4    3
 0.07213965470051011    1    1    4    4
 -0.0002970103230973635    1    1    5    1
 -0.0001246273492698318    1    1    5    2
 -0.0003719728463213402    1    1    5    3
 1.946751819440496e-06    1    1    5    4
 0.08638845953571485    1    1    5    5
 0.0003426953036248979    1    1    6    1
 -3.186581612799246e-05    1    1    6    2
 1.508510727394821e-05    1    1    6    3
 2.968196378319458e-07    1    1    6    4
 1.743912043299206e-05    1    1    6    5
 0.2062890859713571    1    1    6    6
 -0.007092484276957842    1    1    7    1
 -0.0007413504749567035    1    1    7    2
 0.0005780017450620977    1    1    7    3
 3.768603196384892e-05    1    1    7    4
 2.627239730030713e-05    1    1    7    5
 -0.0002490259713646146    1    1    7    6
 0.3283398735287655    1    1    7    7
 -0.002176830163243174    1    1    8    1
 0.001866271939628149    1    1    8    2
 1.182399349494008e-05    1    1    8    3
 1.784321335174814e-05    1    1    8    4
 -0.0001762646281179781    1    1    8    5
 -2.010413824189629e-05    1    1    8    6
 0.001819370150197574    1    1    8    7
 0.2062572937091939    1    1    8    8
 -0.0001872812450934093    1    1    9    1
 -7.318065658343605e-06    1    1    9    2
 4.908806376198578e-06    1    1    9    3
 -0.0001688813381840436    1    1    9    4
 3.358507491470441e-06    1    1    9    5
 0.0002730416441409619    1    1    9    6
 3.606909563751946e-05    1    1    9    7
 1.603335414958565e-05    1    1    9    8
 0.08518785660064838    1    1    9    9
 -4.420978480341409e-05    1    1   10    1
 1.104025430177558e-05    1    1   10    2
 -8.907120566578571e-06    1    1   10    3
 -2.7867142297132e-05    1    1   10    4
 -3.878365064063762e-06    1    1   10    5
 -0.0001094613123165    1    1   10    6
 -9.574612011129155e-05    1    1   10    7
 -3.118053168483631e-05    1    1   10    8
 -0.0003339617249932446    1    1   10    9
 0.1077592257868778    1    1   10   10
 0.002520178166651013    1    1   11    1
 1.205772960744927e-05    1    1   11    2
 -4.242883870796921e-05    1    1   11    3
 3.193480810190669e-05    1    1   11    4
 -5.062231770476259e-05    1    1   11    5
 0.002207473597867381    1    1   11    6
 0.0002580942019204686    1    1   11    7
 -0.0007625477831813316    1    1   11    8
 5.60501888196021e-05    1    1   11    9
 -0.000428041375458981    1    1   11   10
 0.3112754833079083    1    1   11   11
 0.001107678622327024    1    1   12    1
 2.141915693225414e-05    1    1   12    2
 -1.598664265720475e-05    1    1   12    3
 7.161259180540213e-05    1    1   12    4
 -1.356447924960128e-05    1    1   12    5
 -0.001710157042132073    1    1   12    6
 -3.401529414558851e-05    1    1   12    7
 -7.836011434628781e-05    1    1   12    8
 -9.80747414810352e-05    1    1   12    9
 -0.0004927609159701633    1    1   12   10
 0.0003675083573839156    1    1   12   11
 0.13716435015451    1    1   12   12
 0.001355827291078663    2    1    1    1
 1.958210722990417e-05    2    1    2    1
 0.001406271109892438    2    1    2    2
 -3.177956449798114e-06    2    1    3    1
 -1.091003061067283e-05    2    1    3    2
 0.0004290649024823767    2    1    3    3
 -2.319359823161643e-07    2    1    4    1
 -3.522836564509789e-07    2    1    4    2
 1.41270136466761e-08    2    1    4    3
 1.601149810062779e-05    2    1    4    4
 -1.739726894952734e-06    2    1    5    1
 1.365122457725195e-06    2    1    5    2
 -8.273028614721243e-06    2    1    5    3
 1.044051504398143e-08    2    1    5    4
 0.0001757705407603079    2    1    5    5
 2.348211573928053e-06    2    1    6    1
 -1.982296488863863e-06    2    1    6    2
 1.412246153469458e-07    2    1    6    3
 1.233548437058054e-08    2    1    6    4
 7.732869614618247e-08    2    1    6    5
 0.000186109503991818    2    1    6    6
 -9.099295810593675e-05    2    1    7    1
 8.07035202158242e-06    2    1    7    2
 1.588668724688188e-06    2    1    7    3
 1.18243375943398e-07    2    1    7    4
 3.018801550944588e-07    2    1    7    5
 -1.796558209387092e-06    2    1    7    6
 -0.0002459584295899703    2    1    7    7
 -6.605126626756135e-06    2    1    8    1
 9.418407363587953e-05    2    1    8    2
 -4.544774652409936e-06    2    1    8    3
 -9.967901615339785e-08    2    1    8    4
 1.626070000448386e-06    2    1    8    5
 -4.195220224787457e-07    2    1    8    6
 4.948246680701647e-05    2    1    8    7
 -0.0002335528619198227    2    1    8    8
 -7.821328266356956e-07    2    1    9    1
 -2.113482249826713e-07    2    1    9    2
 7.153746625783605e-09    2    1    9    3
 -1.576363547184777e-07    2    1    9    4
 8.853802815481652e-09    2    1    9    5
 5.692053163333797e-07    2    1    9    6
 1.434777194399205e-07    2    1    9    7
 -6.397318747089222e-08    2    1    9    8
 2.398142659080811e-05    2    1    9    9
 -2.484601968119961e-08    2    1   10    1
 7.919000819692436e-07    2    1   10    2
 -3.563507964644515e-08    2    1   10    3
 -3.438412689001368e-08    2    1   10    4
 -2.223278033622508e-08    2    1   10    5
 -2.352033815181484e-07    2    1   10    6
 -1.549793959419168e-07    2    1   10    7
 2.427898004895402e-07    2    1   10    8
 -4.513744317841166e-07    2    1   10    9
 4.227076321404728e-05    2    1   10   10
 9.63785623486839e-06    2    1   11    1
 3.482834975860161e-06    2    1   11    2
 -2.476044795380099e-09    2    1   11    3
 1.795854528011707e-07    2    1   11    4
 -1.509694664335627e-07    2    1   11    5
 8.227151143874759e-06    2    1   11    6
 -4.542986947244207e-06    2    1   11    7
 1.929454132804254e-06    2    1   11    8
 2.477746039515517e-07    2    1   11    9
 -1.316029087382363e-06    2    1   11   10
 0.0004280424867932154    2    1   11   11
 3.881960061808218e-06    2    1   12    1
 7.221705160102539e-07    2    1   12    2
 -3.566674884377455e-08    2    1   12    3
 1.007050416867548e-07    2    1   12    4
 -3.668844759993489e-08    2    1   12    5
 -4.414970841171296e-06    2    1   12    6
 -3.428357469901856e-07    2    1   12    7
 1.464630006377713e-07    2    1   12    8
 -1.272917943984048e-07    2    1   12    9
 -8.428521369905733e-07    2    1   12   10
 2.151265643179061e-07    2    1   12   11
 7.37092002505909e-05    2    1   12   12
 0.1412253035289332    2    2    1    1
 0.001406271109892436    2    2    2    1
 0.6200340646793329    2    2    2    2
 -1.10278580445615e-05    2    2    3    1
 -0.00246235186406669    2    2    3    2
 0.3110080319697229    2    2    3    3
 -9.343421983393449e-06    2    2    4    1
 -6.146164220212469e-05    2    2    4    2
 9.458787639725382e-06    2    2    4    3
 0.04849490001896446    2    2    4    4
 -4.879768634708296e-05    2    2    5    1
 0.0001851214847834845    2    2    5    2
 -0.002385302806220794    2    2    5    3
 4.804186647733134e-06    2    2    5    4
 0.2039804901354555    2    2    5    5
 -0.0001276122534044468    2    2    6    1
 -0.0003443196152261642    2    2    6    2
 5.277771990944001e-05    2    2    6    3
 6.285030934722887e-07    2    2    6    4
 2.53012738849826e-05    2    2    6    5
 0.08681867860899037    2    2    6    6
 -0.00186999364285825    2    2    7    1
 0.002324792677385435    2    2    7    2
 -0.0007799245026150191    2    2    7    3
 -3.826444282852047e-06    2    2    7    4
 1.053007835095766e-05    2    2    7    5
 0.0001878729045399326    2    2    7    6
 0.2063105729710656    2    2    7    7
 0.0007507901955793992    2    2    8    1
 0.007498648399333783    2    2    8    2
 0.0002977917593670384    2    2    8    3
 -2.695242300845978e-05    2    2    8    4
 0.0001938779791405272    2    2    8    5
 -3.634132432724576e-05    2    2    8    6
 0.001828876132296968    2    2    8    7
 0.3284837617749972    2    2    8    8
 -1.756985749573563e-05    2    2    9    1
 -3.212836470176994e-05    2    2    9    2
 5.829442702724451e-06    2    2    9    3
 -5.871577115068121e-05    2    2    9    4
 3.184378097249398e-06    2    2    9    5
 4.005857859470764e-05    2    2    9    6
 -5.679630483055287e-06    2    2    9    7
 -2.700125482268757e-05    2    2    9    8
 0.05450196893462934    2    2    9    9
 4.348012046629379e-06    2    2   10    1
 0.0001420606485875308    2    2   10    2
 -2.383806104674326e-05    2    2   10    3
 -1.636429268083442e-05    2    2   10    4
 -1.093199816156658e-05    2    2   10    5
 -3.885064887281415e-05    2    2   10    6
 -3.250701878529791e-07    2    2   10    7
 4.707270621492944e-05    2    2   10    8
 -6.423322359331394e-05    2    2   10    9
 0.06239596061746237    2    2   10   10
 0.0005055997578252852    2    2   11    1
 0.00049460758163894    2    2   11    2
 -5.235145557960589e-05    2    2   11    3
 -2.884705898566365e-06    2    2   11    4
 -2.255011021721205e-05    2    2   11    5
 0.000346952816811875    2    2   11    6
 9.520081664959607e-06    2    2   11    7
 0.0005861509806760822    2    2   11    8
 4.424581758183658e-06    2    2   11    9
 -4.227050835058548e-05    2    2   11   10
 0.1077592259471877    2    2   11   11
 0.0001218730202068871    2    2   12    1
 0.0001119520947930762    2    2   12    2
 -1.612437252720085e-05    2    2   12    3
 1.571234564226532e-05    2    2   12    4
 -9.877330304108297e-06    2    2   12    5
 -0.0001535070983991006    2    2   12    6
 -2.717187995378677e-05    2    2   12    7
 9.035421398918189e-05    2    2   12    8
 -8.185885999051983e-06    2    2   12    9
 -0.0001160702324606591    2    2   12   10
 1.829245185511191e-05    2    2   12   11
 0.07245918759963253    2    2   12   12
 -0.0004450648095645323    3    1    1    1
 -3.177956449798106e-06    3    1    2    1
 -1.102785804456125e-05    3    1    2    2
 1.254941924452173e-06    3    1    3    1
 -9.556505892924915e-07    3    1    3    2
 -1.458745868699284e-05    3    1    3    3
 1.434277953607632e-07    3    1    4    1
 1.093806105287027e-08    3    1    4    2
 -1.097368514270135e-08    3    1    4    3
 -1.492925999824437e-06    3    1    4    4
 5.183074062285725e-07    3    1    5    1
 1.338808159005214e-06    3    1    5    2
 -3.480087439797599e-06    3    1    5    3
 8.21407965336295e-09    3    1    5    4
 5.444537209491528e-05    3    1    5    5
 -1.682270691516073e-06    3    1    6    1
 8.13274260396126e-08    3    1    6    2
 -5.665852467162431e-08    3    1    6    3
 5.824756485891252e-10    3    1    6    4
 3.30187505256611e-08    3    1    6    5
 -2.75636464121034e-05    3    1    6    6
 4.204807261983825e-05    3    1    7    1
 1.913726782106891e-06    3    1    7    2
 -3.554013680645584e-07    3    1    7    3
 -7.204264894649587e-08    3    1    7    4
 -2.971839882297753e-07    3    1    7    5
 -3.176435820100088e-07    3    1    7    6
 -2.329333417592952e-05    3    1    7    7
 7.968217463462338e-06    3    1    8    1
 -6.966208345799439e-06    3    1    8    2
 2.648900326243773e-06    3    1    8    3
 -1.013808258928566e-09    3    1    8    4
 -5.531027352488048e-07    3    1    8    5
 -7.429905503779524e-08    3    1    8    6
 -7.139420556299418e-06    3    1    8    7
 2.260661354430977e-05    3    1    8    8
 3.244126472412403e-07    3    1    9    1
 8.03687610143423e-09    3    1    9    2
 -8.384708088821142e-09    3    1    9    3
 -1.177150116824965e-08    3    1    9    4
 4.448024741762182e-09    3    1    9    5
 -1.074913572837921e-07    3    1    9    6
 -7.957722677377381e-08    3    1    9    7
 -4.48374682573494e-09    3    1    9    8
 -1.237478151907808e-06    3    1    9    9
 -1.586640292144568e-08    3    1   10    1
 -2.32691848856023e-08    3    1   10    2
 2.285716646293143e-08    3    1   10    3
 -2.709220804302648e-08    3    1   10    4
 -1.851190447151214e-08    3    1   10    5
 -8.30975574235932e-08    3    1   10    6
 1.571817471394701e-07    3    1   10    7
 -4.729887518143912e-09    3    1   10    8
 1.071017959948125e-07    3    1   10    9
 -4.42453256481919e-06    3    1   10   10
 -1.579672928999726e-05    3    1   11    1
 -1.286590315090115e-07    3    1   11    2
 8.819651891425055e-08    3    1   11    3
 -4.081631490545985e-08    3    1   11    4
 -9.136306075758734e-09    3    1   11    5
 -1.234076439591035e-06    3    1   11    6
 7.197913220981464e-07    3    1   11    7
 2.684182178976115e-07    3    1   11    8
 -3.360881098085025e-08    3    1   11    9
 2.477744276269997e-07    3    1   11   10
 -5.605008834545769e-05    3    1   11   11
 -1.862643361952963e-06    3    1   12    1
 -3.341019884714508e-08    3    1   12    2
 2.762182213543032e-08    3    1   12    3
 -8.035173189854366e-09    3    1   12    4
 -8.942437778602474e-09    3    1   12    5
 1.247193722623192e-06    3    1   12    6
 2.784161545974695e-07    3    1   12    7
 5.309319455815497e-08    3    1   12    8
 6.785461289071617e-08    3    1   12    9
 -2.249907234841702e-08    3    1   12   10
 -2.656517726783171e-07    3    1   12   11
 -4.634456518392973e-06    3    1   12   12
 -0.0005027777682770111    3    2    1    1
 -1.091003061067272e-05    3    2    2    1
 -0.002462351864066683    3    2    2    2
 -9.55650589292575e-07    3    2    3    1
 0.003338932512827136    3    2    3    2
 -0.002009806312181429    3    2    3    3
 7.784522667110004e-08    3    2    4    1
 2.957163369489182e-06    3    2    4    2
 1.761977612328658e-06    3    2    4    3
 -3.23479152874754e-05    3    2    4    4
 3.06371610873602e-06    3    2    5    1
 -8.34355544197027e-05    3    2    5    2
 -2.368591512847304e-05    3    2    5    3
 -2.363566502655872e-07    3    2    5    4
 -0.001893819654806188    3    2    5    5
 3.306526699181243e-06    3    2    6    1
 1.38657202562362e-05    3    2    6    2
 7.714684067195355e-06    3    2    6    3
 -2.33184164511266e-08    3    2    6    4
 -9.730317339880682e-07    3    2    6    5
 -0.0001532753957635087    3    2    6    6
 6.928895216096416e-05    3    2    7    1
 -0.0001958635800410793    3    2    7    2
 -6.945718618204258e-05    3    2    7    3
 -1.287557810448694e-07    3    2    7    4
 8.492682662714507e-06    3    2    7    5
 -4.4688788924482e-06    3    2    7    6
 -0.001709493691311662    3    2    7    7
 -2.741226365893889e-05    3    2    8    1
 -2.050144009981985e-05    3    2    8    2
 5.435467374707454e-05    3    2    8    3
 6.392848449031397e-08    3    2    8    4
 5.057177682951968e-05    3    2    8    5
 1.106212339371115e-06    3    2    8    6
 0.0001293036779200455    3    2    8    7
 -0.001807896714459345    3    2    8    8
 1.734008064509905e-07    3    2    9    1
 2.161025648592023e-06    3    2    9    2
 1.475804646824391e-06    3    2    9    3
 3.807449639655583e-07    3    2    9    4
 -1.298503887409952e-07    3    2    9    5
 -2.293409051182786e-07    3    2    9    6
 -5.316179365163612e-08    3    2    9    7
 1.744625176091528e-07    3    2    9    8
 -5.064052958341554e-05    3    2    9    9
 -1.365157791135055e-07    3    2   10    1
 -6.806985862086777e-06    3    2   10    2
 -3.90974578781913e-06    3    2   10    3
 2.213182988264801e-07    3    2   10    4
 5.010428601094088e-07    3    2   10    5
 6.812586271811065e-07    3    2   10    6
 3.477536651058503e-07    3    2   10    7
 -2.20070393436268e-08    3    2   10    8
 9.689769531026785e-08    3    2   10    9
 -6.423360789055042e-05    3    2   10   10
 -8.997950984258351e-07    3    2   11    1
 -1.78568968701366e-05    3    2   11    2
 -8.706837687844091e-06    3    2   11    3
 2.059844501523071e-08    3    2   11    4
 1.445259991823419e-06    3    2   11    5
 -6.520993555958397e-06    3    2   11    6
 8.046567371610313e-06    3    2   11    7
 -2.181735736040427e-06    3    2   11    8
 -1.071020215309492e-07    3    2   11    9
 4.513738810934523e-07    3    2   11   10
 -0.0003339628369703186    3    2   11   11
 -1.164661422749422e-06    3    2   12    1
 -5.63782832369409e-06    3    2   12    2
 -3.698106662119078e-06    3    2   12    3
 -8.974699554233312e-08    3    2   12    4
 3.469884865687634e-07    3    2   12    5
 3.21363133198644e-07    3    2   12    6
 1.266038328305845e-06    3    2   12    7
 -9.399080411550197e-07    3    2   12    8
 -2.182231678499599e-07    3    2   12    9
 1.281317629398447e-06    3    2   12   10
 7.925927191452936e-07    3    2   12   11
 -0.000113100779421818    3    2   12   12
 0.1077043492455874    3    3    1    1
 0.0004290649024823771    3    3    2    1
 0.311008031969723    3    3    2    2
 -1.458745868699327e-05    3    3    3    1
 -0.002009806312181442    3    3    3    2
 0.6172725253418798    3    3    3    3
 -5.401327388459851e-06    3    3    4    1
 -2.796850172069586e-06    3    3    4    2
 -2.563263331419463e-05    3    3    4    3
 0.04354824201592672    3    3    4    4
 -0.0001340718444168773    3    3    5    1
 -0.0001132388463423988    3    3    5    2
 -0.006964835089071367    3    3    5    3
 1.208664901371902e-05    3    3    5    4
 0.3249203181897888    3    3    5    5
 -3.016010634361367e-05    3    3    6    1
 -3.86488579575622e-05    3    3    6    2
 -7.872377536363842e-05    3    3    6    3
 -2.697343056727506e-07    3    3    6    4
 5.92441217315259e-05    3    3    6    5
 0.07243945494908735    3    3    6    6
 -0.0004905115858220515    3    3    7    1
 -0.000340743234437823    3    3    7    2
 0.001085371439820166    3    3    7    3
 -3.408195102785093e-06    3    3    7    4
 -8.679986453223918e-05    3    3    7    5
 7.387970814072659e-05    3    3    7    6
 0.1371031241256936    3    3    7    7
 0.0001130333003095415    3    3    8    1
 0.002235490071553337    3    3    8    2
 -0.0001757837845420715    3    3    8    3
 -1.299361722941069e-05    3    3    8    4
 0.0001532738013226532    3    3    8    5
 -3.876567639787006e-06    3    3    8    6
 0.001711826021614614    3    3    8    7
 0.2061262051499708    3    3    8    8
 -9.872203115762677e-06    3    3    9    1
 3.701615923990952e-06    3    3    9    2
 -2.455154319881159e-05    3    3    9    3
 -3.805843257323635e-05    3    3    9    4
 6.905306915631911e-06    3    3    9    5
 2.636011313010231e-05    3    3    9    6
 -3.941124045891424e-06    3    3    9    7
 -1.261021536132528e-05    3    3    9    8
 0.04810170420354153    3    3    9    9
 3.119890519257376e-07    3    3   10    1
 7.721624723801561e-06    3    3   10    2
 5.185376185696294e-05    3    3   10    3
 -5.260857436996381e-06    3    3   10    4
 -2.695966139418814e-05    3    3   10    5
 -1.153927882844435e-05    3    3   10    6
 2.300946523942433e-06    3    3   10    7
 2.246472698840397e-05    3    3   10    8
 -5.064022208126278e-05    3    3   10    9
 0.05450196893430542    3    3   10   10
 0.0003346751412004859    3    3   11    1
 6.020318289896756e-05    3    3   11    2
 0.0001894701200533452    3    3   11    3
 -1.607234669723606e-06    3    3   11    4
 -5.640971015672389e-05    3    3   11    5
 0.0001495429242622103    3    3   11    6
 9.675503614551459e-05    3    3   11    7
 0.0002768414570664797    3    3   11    8
 1.237515906262345e-06    3    3   11    9
 -2.39812538012633e-05    3    3   11   10
 0.08518785674356905    3    3   11   11
 6.838909019411155e-05    3    3   12    1
 2.177003876802592e-06    3    3   12    2
 6.106960193445109e-05    3    3   12    3
 1.054298166044516e-05    3    3   12    4
 -2.026433038993211e-05    3    3   12    5
 -0.0001130982530041549    3    3   12    6
 -4.221199004103604e-06    3    3   12    7
 3.892209825668345e-05    3    3   12    8
 -1.424556103808161e-05    3    3   12    9
 -6.325271034199282e-05    3    3   12   10
 3.209120788054049e-05    3    3   12   11
 0.06153642445109584    3    3   12   12
 -6.03156982461086e-05    4    1    1    1
 -2.319359823161626e-07    4    1    2    1
 -9.343421983393421e-06    4    1    2    2
 1.434277953607631e-07    4    1    3    1
 7.784522667110232e-08    4    1    3    2
 -5.401327388459803e-06    4    1    3    3
 1.954205441864817e-07    4    1    4    1
 -7.263004387401326e-08    4    1    4    2
 2.014632588690388e-08    4    1    4    3
 0.0001616931864737016    4    1    4    4
 1.099218770914551e-07    4    1    5    1
 2.406898751545561e-08    4    1    5    2
 7.114610660509348e-08    4    1    5    3
 3.309705134684082e-08    4    1    5    4
 -3.282340459740648e-06    4    1    5    5
 5.830779673356151e-08    4    1    6    1
 -6.256255709995057e-09    4    1    6    2
 1.277388955867289e-09    4    1    6    3
 -5.388045556415508e-07    4    1    6    4
 3.262165019621997e-09    4    1    6    5
 2.999115257562736e-05    4    1    6    6
 2.014899445250365e-06    4    1    7    1
 1.928441703060097e-07    4    1    7    2
 -1.215634937352893e-07    4    1    7    3
 1.427458532667759e-07    4    1    7    4
 -6.973213419400602e-09    4    1    7    5
 -2.15229804056237e-07    4    1    7    6
 -4.313060248145373e-05    4    1    7    7
 1.193678284263496e-06    4    1    8    1
 -5.951822071303536e-07    4    1    8    2
 3.194641702351842e-08    4    1    8    3
 5.212151260571912e-08    4    1    8    4
 4.320258659324238e-08    4    1    8    5
 -3.413472000655819e-09    4    1    8    6
 3.473680225368163e-08    4    1    8    7
 -2.096998873347754e-05    4    1    8    8
 3.547655953178402e-08    4    1    9    1
 1.560651957604828e-08    4    1    9    2
 -5.846142224835689e-09    4    1    9    3
 -1.091695012963136e-05    4    1    9    4
 -7.206313495326722e-09    4    1    9    5
 3.219718999351818e-07    4    1    9    6
 -4.29342629999573e-08    4    1    9    7
 -1.505069853424579e-08    4    1    9    8
 5.640947803365724e-05    4    1    9    9
 -3.115325913587237e-08    4    1   10    1
 -5.647104681393953e-10    4    1   10    2
 1.069070009753957e-09    4    1   10    3
 3.094184803972522e-06    4    1   10    4
 -3.774029001817759e-11    4    1   10    5
 4.821460756132855e-08    4    1   10    6
 3.831566223583254e-08    4    1   10    7
 4.265891647351929e-09    4    1   10    8
 -1.445259714116071e-06    4    1   10    9
 2.25500518880507e-05    4    1   10   10
 -6.727225010910673e-06    4    1   11    1
 4.663963885829203e-09    4    1   11    2
 2.742879171192743e-08    4    1   11    3
 3.693019313182301e-07    4    1   11    4
 7.528256645680843e-09    4    1   11    5
 3.499005459983896e-07    4    1   11    6
 8.233667767926985e-08    4    1   11    7
 2.134166320591552e-07    4    1   11    8
 -9.136505770027786e-09    4    1   11    9
 -1.509691706117672e-07    4    1   11   10
 5.062240058369685e-05    4    1   11   11
 -5.958621351810673e-07    4    1   12    1
 -1.283327632058282e-09    4    1   12    2
 1.816118118743938e-09    4    1   12    3
 1.10798041350853e-06    4    1   12    4
 2.815676887931829e-10    4    1   12    5
 -3.377088432003025e-07    4    1   12    6
 6.66548348601811e-08    4    1   12    7
 6.746471316312809e-09    4    1   12    8
 -3.175350554964432e-07    4    1   12    9
 -1.317574732433465e-06    4    1   12   10
 -1.955604073523304e-08    4    1   12   11
 2.24680962593518e-05    4    1   12   12
 -4.227398852361978e-06    4    2    1    1
 -3.522836564509792e-07    4    2    2    1
 -6.146164220212464e-05    4    2    2    2
 1.093806105287021e-08    4    2    3    1
 2.957163369489187e-06    4    2    3    2
 -2.796850172069599e-06    4    2    3    3
 -7.26300438740133e-08    4    2    4    1
 5.651925197818257e-08    4    2    4    2
 -1.11391399980157e-08    4    2    4    3
 -8.153591903709866e-05    4    2    4    4
 -1.208119613841463e-11    4    2    5    1
 -6.534749388212122e-09    4    2    5    2
 3.954191798234535e-07    4    2    5    3
 -1.634411216177677e-08    4    2    5    4
 2.576255364270181e-06    4    2    5    5
 8.164907180910146e-09    4    2    6    1
 1.044284082622124e-07    4    2    6    2
 -4.96617638481135e-09    4    2    6    3
 2.653974748599662e-07    4    2    6    4
 4.622792987628327e-10    4    2    6    5
 -4.197386531473328e-06    4    2    6    6
 3.273583634838263e-07    4    2    7    1
 -8.815136050663915e-07    4    2    7    2
 6.973993309905154e-08    4    2    7    3
 -7.729429249916668e-08    4    2    7    4
 4.097762821044105e-11    4    2    7    5
 -1.731208073747728e-08    4    2    7    6
 -7.670399558621211e-06    4    2    7    7
 -9.783771946080808e-08    4    2    8    1
 -3.948148588294968e-06    4    2    8    2
 1.475399519459593e-07    4    2    8    3
 -2.256020308955487e-08    4    2    8    4
 5.592377527554276e-08    4    2    8    5
 9.595952099594954e-09    4    2    8    6
 -3.226914467007471e-07    4    2    8    7
 -1.838154647448112e-05    4    2    8    8
 2.164108646460977e-08    4    2    9    1
 6.144518186806351e-09    4    2    9    2
 1.92162355503002e-09    4    2    9    3
 5.179680339595077e-06    4    2    9    4
 3.318968734328743e-09    4    2    9    5
 -1.162163107567661e-07    4    2    9    6
 1.333799191647678e-08    4    2    9    7
 1.060804807417823e-08    4    2    9    8
 -2.69596291838337e-05    4    2    9    9
 3.866150044860612e-09    4    2   10    1
 -4.629079595331391e-08    4    2   10    2
 2.070212089333273e-09    4    2   10    3
 -1.551050913886695e-06    4    2   10    4
 -2.647475392032099e-10    4    2   10    5
 -2.247094920001419e-08    4    2   10    6
 7.782055589176088e-12    4    2   10    7
 -8.072475541117474e-09    4    2   10    8
 5.010432083480509e-07    4    2   10    9
 -1.093199443764446e-05    4    2   10   10
 -1.900399110792375e-08    4    2   11    1
 -1.506108724904727e-07    4    2   11    2
 7.123083203552962e-09    4    2   11    3
 -1.708850348746572e-07    4    2   11    4
 3.773514737712962e-11    4    2   11    5
 -6.165013687773972e-08    4    2   11    6
 2.101870981639884e-08    4    2   11    7
 -7.844902789964663e-08    4    2   11    8
 1.851198727345191e-08    4    2   11    9
 2.223284149975745e-08    4    2   11   10
 -3.878368567964176e-06    4    2   11   11
 -1.402946607466586e-08    4    2   12    1
 -3.799013428847854e-08    4    2   12    2
 1.384649206792312e-09    4    2   12    3
 -5.18281120170208e-07    4    2   12    4
 -4.102880270626108e-10    4    2   12    5
 3.338016134843015e-08    4    2   12    6
 2.634381599692995e-09    4    2   12    7
 -1.46626365809935e-08    4    2   12    8
 1.483570678533528e-07    4    2   12    9
 4.090392505654692e-07    4    2   12   10
 -1.049006928829611e-08    4    2   12   11
 -5.549103307710274e-06    4    2   12   12
 4.253024143346834e-06    4    3    1    1
 1.412701364667623e-08    4    3    2    1
 9.458787639725383e-06    4    3    2    2
 -1.097368514270139e-08    4    3    3    1
 1.761977612328651e-06    4    3    3    2
 -2.563263331419463e-05    4    3    3    3
 2.014632588690388e-08    4    3    4    1
 -1.113913999801572e-08    4    3    4    2
 7.376708935414019e-09    4    3    4    3
 1.953828915891833e-05    4    3    4    4
 1.59824166302635e-08    4    3    5    1
 -1.200129019033774e-07    4    3    5    2
 8.73242333367992e-07    4    3    5    3
 3.078763909740622e-09    4    3    5    4
 -1.53724571361006e-05    4    3    5    5
 -4.038688548386416e-09    4    3    6    1
 -5.82200490855378e-09    4    3    6    2
 1.769569319292136e-08    4    3    6    3
 -7.338789330447332e-08    4    3    6    4
 -6.964178046288006e-09    4    3    6    5
 2.528914752169874e-06    4    3    6    6
 -8.982035226523912e-08    4    3    7    1
 1.543891818202043e-08    4    3    7    2
 -1.984422784910852e-07    4    3    7    3
 2.200860251115239e-08    4    3    7    4
 2.907454079918157e-08    4    3    7    5
 9.772236223883423e-09    4    3    7    6
 6.232935447020067e-06    4    3    7    7
 8.698269944316348e-09    4    3    8    1
 -6.585303222178472e-08    4    3    8    2
 -6.740308314109712e-08    4    3    8    3
 7.05606850378039e-09    4    3    8    4
 6.073117901884205e-08    4    3    8    5
 6.493059838327556e-11    4    3    8    6
 2.702473374265989e-08    4    3    8    7
 8.204505409887979e-06    4    3    8    8
 -6.293963547797857e-09    4    3    9    1
 1.203068007177027e-09    4    3    9    2
 3.113381142347647e-09    4    3    9    3
 -1.498898158927094e-06    4    3    9    4
 -1.737077155982768e-09    4    3    9    5
 3.17521626889395e-08    4    3    9    6
 -3.22533365999779e-09    4    3    9    7
 -2.281915395286183e-09    4    3    9    8
 6.905393987629812e-06    4    3    9    9
 -1.270371316361098e-09    4    3   10    1
 2.428106760529617e-09    4    3   10    2
 -9.645135369401945e-09    4    3   10    3
 4.392183368796016e-07    4    3   10    4
 3.318977215253649e-09    4    3   10    5
 6.570165209099592e-09    4    3   10    6
 -1.413669119358751e-09    4    3   10    7
 6.700318176083206e-10    4    3   10    8
 -1.298511073155033e-07    4    3   10    9
 3.184428644084391e-06    4    3   10   10
 2.162890501983719e-08    4    3   11    1
 5.700075863603722e-09    4    3   11    2
 -2.9475298089374e-08    4    3   11    3
 4.774633536465597e-08    4    3   11    4
 7.206345632847768e-09    4    3   11    5
 3.918836009526304e-08    4    3   11    6
 -5.516543321731096e-09    4    3   11    7
 1.097417897166235e-08    4    3   11    8
 -4.448069420662105e-09    4    3   11    9
 -8.85385829533298e-09    4    3   11   10
 3.358508214946404e-06    4    3   11   11
 7.26519093101372e-09    4    3   12    1
 1.832490093610755e-09    4    3   12    2