[Molden Format]
made by pyscf v[2.0.1]
[Atoms] (AU)
C   1   6     1.37005144030967     0.00000000000000     0.00000000000000
C   2   6    -1.37005144030967     0.00000000000000     0.00000000000000
C   3   6     2.63616794376826     2.19297811229174     0.00000000000000
C   4   6    -2.63616794376826    -2.19297811229174     0.00000000000000
H   5   1     2.39050354757480    -1.76747489647394     0.00000000000000
H   6   1    -2.39050354757480     1.76747489647394     0.00000000000000
C   7   6     5.37627082438760     2.19297811229174     0.00000000000000
C   8   6    -5.37627082438760    -2.19297811229174     0.00000000000000
H   9   1     1.61571583650313     3.96045300876567     0.00000000000000
H   10   1    -1.61571583650313    -3.96045300876567     0.00000000000000
C   11   6     6.64238732784619     4.38595622458347     0.00000000000000
C   12   6    -6.64238732784619    -4.38595622458347     0.00000000000000
H   13   1     6.39672293165273     0.42550321581780     0.00000000000000
H   14   1    -6.39672293165273    -0.42550321581780     0.00000000000000
C   15   6     9.38249020846553     4.38595622458347     0.00000000000000
C   16   6    -9.38249020846553    -4.38595622458347     0.00000000000000
H   17   1     5.62193522058106     6.15343112105741     0.00000000000000
H   18   1    -5.62193522058106    -6.15343112105741     0.00000000000000
C   19   6    10.64860671192412     6.57893433687521     0.00000000000000
C   20   6   -10.64860671192412    -6.57893433687521     0.00000000000000
H   21   1    10.40294231573067     2.61848132810954     0.00000000000000
H   22   1   -10.40294231573067    -2.61848132810954     0.00000000000000
H   23   1    12.68951092645439     6.57893433687521     0.00000000000000
H   24   1   -12.68951092645439    -6.57893433687521     0.00000000000000
H   25   1     9.62815460465899     8.34640923334915     0.00000000000000
H   26   1    -9.62815460465899    -8.34640923334915     0.00000000000000
[GTO]
1 0
 s    6 1.00
             3047.5249  0.0018347001629433
             457.36951    0.01403730124668
             103.94869   0.068842606114048
             29.210155    0.23218442062076
              9.286663    0.46794134155879
              3.163927    0.36231203217765
 s    3 1.00
             7.8682724   -0.11933240861517
             1.8812885   -0.16085421161283
             0.5442493     1.1434564825515
 s    1 1.00
             0.1687144                   1
 p    3 1.00
             7.8682724   0.068999095584993
             1.8812885    0.31642397975315
             0.5442493    0.74430825237435
 p    1 1.00
             0.1687144                   1

2 0
 s    6 1.00
             3047.5249  0.0018347001629433
             457.36951    0.01403730124668
             103.94869   0.068842606114048
             29.210155    0.23218442062076
              9.286663    0.46794134155879
              3.163927    0.36231203217765
 s    3 1.00
             7.8682724   -0.11933240861517
             1.8812885   -0.16085421161283
             0.5442493     1.1434564825515
 s    1 1.00
             0.1687144                   1
 p    3 1.00
             7.8682724   0.068999095584993
             1.8812885    0.31642397975315
             0.5442493    0.74430825237435
 p    1 1.00
             0.1687144                   1

3 0
 s    6 1.00
             3047.5249  0.0018347001629433
             457.36951    0.01403730124668
             103.94869   0.068842606114048
             29.210155    0.23218442062076
              9.286663    0.46794134155879
              3.163927    0.36231203217765
 s    3 1.00
             7.8682724   -0.11933240861517
             1.8812885   -0.16085421161283
             0.5442493     1.1434564825515
 s    1 1.00
             0.1687144                   1
 p    3 1.00
             7.8682724   0.068999095584993
             1.8812885    0.31642397975315
             0.5442493    0.74430825237435
 p    1 1.00
             0.1687144                   1

4 0
 s    6 1.00
             3047.5249  0.0018347001629433
             457.36951    0.01403730124668
             103.94869   0.068842606114048
             29.210155    0.23218442062076
              9.286663    0.46794134155879
              3.163927    0.36231203217765
 s    3 1.00
             7.8682724   -0.11933240861517
             1.8812885   -0.16085421161283
             0.5442493     1.1434564825515
 s    1 1.00
             0.1687144                   1
 p    3 1.00
             7.8682724   0.068999095584993
             1.8812885    0.31642397975315
             0.5442493    0.74430825237435
 p    1 1.00
             0.1687144                   1

5 0
 s    3 1.00
             18.731137    0.03349459952309
             2.8253937    0.23472694665786
             0.6401217    0.81375731841339
 s    1 1.00
             0.1612778                   1

6 0
 s    3 1.00
             18.731137    0.03349459952309
             2.8253937    0.23472694665786
             0.6401217    0.81375731841339
 s    1 1.00
             0.1612778                   1

7 0
 s    6 1.00
             3047.5249  0.0018347001629433
             457.36951    0.01403730124668
             103.94869   0.068842606114048
             29.210155    0.23218442062076
              9.286663    0.46794134155879
              3.163927    0.36231203217765
 s    3 1.00
             7.8682724   -0.11933240861517
             1.8812885   -0.16085421161283
             0.5442493     1.1434564825515
 s    1 1.00
             0.1687144                   1
 p    3 1.00
             7.8682724   0.068999095584993
             1.8812885    0.31642397975315
             0.5442493    0.74430825237435
 p    1 1.00
             0.1687144                   1

8 0
 s    6 1.00
             3047.5249  0.0018347001629433
             457.36951    0.01403730124668
             103.94869   0.068842606114048
             29.210155    0.23218442062076
              9.286663    0.46794134155879
              3.163927    0.36231203217765
 s    3 1.00
             7.8682724   -0.11933240861517
             1.8812885   -0.16085421161283
             0.5442493     1.1434564825515
 s    1 1.00
             0.1687144                   1
 p    3 1.00
             7.8682724   0.068999095584993
             1.8812885    0.31642397975315
             0.5442493    0.74430825237435
 p    1 1.00
             0.1687144                   1

9 0
 s    3 1.00
             18.731137    0.03349459952309
             2.8253937    0.23472694665786
             0.6401217    0.81375731841339
 s    1 1.00
             0.1612778                   1

10 0
 s    3 1.00
             18.731137    0.03349459952309
             2.8253937    0.23472694665786
             0.6401217    0.81375731841339
 s    1 1.00
             0.1612778                   1

11 0
 s    6 1.00
             3047.5249  0.0018347001629433
             457.36951    0.01403730124668
             103.94869   0.068842606114048
             29.210155    0.23218442062076
              9.286663    0.46794134155879
              3.163927    0.36231203217765
 s    3 1.00
             7.8682724   -0.11933240861517
             1.8812885   -0.16085421161283
             0.5442493     1.1434564825515
 s    1 1.00
             0.1687144                   1
 p    3 1.00
             7.8682724   0.068999095584993
             1.8812885    0.31642397975315
             0.5442493    0.74430825237435
 p    1 1.00
             0.1687144                   1

12 0
 s    6 1.00
             3047.5249  0.0018347001629433
             457.36951    0.01403730124668
             103.94869   0.068842606114048
             29.210155    0.23218442062076
              9.286663    0.46794134155879
              3.163927    0.36231203217765
 s    3 1.00
             7.8682724   -0.11933240861517
             1.8812885   -0.16085421161283
             0.5442493     1.1434564825515
 s    1 1.00
             0.1687144                   1
 p    3 1.00
             7.8682724   0.068999095584993
             1.8812885    0.31642397975315
             0.5442493    0.74430825237435
 p    1 1.00
             0.1687144                   1

13 0
 s    3 1.00
             18.731137    0.03349459952309
             2.8253937    0.23472694665786
             0.6401217    0.81375731841339
 s    1 1.00
             0.1612778                   1

14 0
 s    3 1.00
             18.731137    0.03349459952309
             2.8253937    0.23472694665786
             0.6401217    0.81375731841339
 s    1 1.00
             0.1612778                   1

15 0
 s    6 1.00
             3047.5249  0.0018347001629433
             457.36951    0.01403730124668
             103.94869   0.068842606114048
             29.210155    0.23218442062076
              9.286663    0.46794134155879
              3.163927    0.36231203217765
 s    3 1.00
             7.8682724   -0.11933240861517
             1.8812885   -0.16085421161283
             0.5442493     1.1434564825515
 s    1 1.00
             0.1687144                   1
 p    3 1.00
             7.8682724   0.068999095584993
             1.8812885    0.31642397975315
             0.5442493    0.74430825237435
 p    1 1.00
             0.1687144                   1

16 0
 s    6 1.00
             3047.5249  0.0018347001629433
             457.36951    0.01403730124668
             103.94869   0.068842606114048
             29.210155    0.23218442062076
              9.286663    0.46794134155879
              3.163927    0.36231203217765
 s    3 1.00
             7.8682724   -0.11933240861517
             1.8812885   -0.16085421161283
             0.5442493     1.1434564825515
 s    1 1.00
             0.1687144                   1
 p    3 1.00
             7.8682724   0.068999095584993
             1.8812885    0.31642397975315
             0.5442493    0.74430825237435
 p    1 1.00
             0.1687144                   1

17 0
 s    3 1.00
             18.731137    0.03349459952309
             2.8253937    0.23472694665786
             0.6401217    0.81375731841339
 s    1 1.00
             0.1612778                   1

18 0
 s    3 1.00
             18.731137    0.03349459952309
             2.8253937    0.23472694665786
             0.6401217    0.81375731841339
 s    1 1.00
             0.1612778                   1

19 0
 s    6 1.00
             3047.5249  0.0018347001629433
             457.36951    0.01403730124668
             103.94869   0.068842606114048
             29.210155    0.23218442062076
              9.286663    0.46794134155879
              3.163927    0.36231203217765
 s    3 1.00
             7.8682724   -0.11933240861517
             1.8812885   -0.16085421161283
             0.5442493     1.1434564825515
 s    1 1.00
             0.1687144                   1
 p    3 1.00
             7.8682724   0.068999095584993
             1.8812885    0.31642397975315
             0.5442493    0.74430825237435
 p    1 1.00
             0.1687144                   1

20 0
 s    6 1.00
             3047.5249  0.0018347001629433
             457.36951    0.01403730124668
             103.94869   0.068842606114048
             29.210155    0.23218442062076
              9.286663    0.46794134155879
              3.163927    0.36231203217765
 s    3 1.00
             7.8682724   -0.11933240861517
             1.8812885   -0.16085421161283
             0.5442493     1.1434564825515
 s    1 1.00
             0.1687144                   1
 p    3 1.00
             7.8682724   0.068999095584993
             1.8812885    0.31642397975315
             0.5442493    0.74430825237435
 p    1 1.00
             0.1687144                   1

21 0
 s    3 1.00
             18.731137    0.03349459952309
             2.8253937    0.23472694665786
             0.6401217    0.81375731841339
 s    1 1.00
             0.1612778                   1

22 0
 s    3 1.00
             18.731137    0.03349459952309
             2.8253937    0.23472694665786
             0.6401217    0.81375731841339
 s    1 1.00
             0.1612778                   1

23 0
 s    3 1.00
             18.731137    0.03349459952309
             2.8253937    0.23472694665786
             0.6401217    0.81375731841339
 s    1 1.00
             0.1612778                   1

24 0
 s    3 1.00
             18.731137    0.03349459952309
             2.8253937    0.23472694665786
             0.6401217    0.81375731841339
 s    1 1.00
             0.1612778                   1

25 0
 s    3 1.00
             18.731137    0.03349459952309
             2.8253937    0.23472694665786
             0.6401217    0.81375731841339
 s    1 1.00
             0.1612778                   1

26 0
 s    3 1.00
             18.731137    0.03349459952309
             2.8253937    0.23472694665786
             0.6401217    0.81375731841339
 s    1 1.00
             0.1612778                   1

[5d]
[7f]
[9g]

[MO]
 Sym= A
 Ene=               0
 Spin= Alpha
 Occup=    1.00000
   1                     0
   2                     0
   3                     0
   4                     0
   5                     0
   6     -0.07712514153156
   7                     0
   8                     0
   9     -0.10462683616199
  10                     0
  11                     0
  12                     0
  13                     0
  14                     0
  15      0.69506235961396
  16                     0
  17                     0
  18      0.53317261856478
  19                     0
  20                     0
  21                     0
  22                     0
  23                     0
  24     0.022604398689421
  25                     0
  26                     0
  27    -0.014492113837694
  28                     0
  29                     0
  30                     0
  31                     0
  32                     0
  33     -0.12045353914493
  34                     0
  35                     0
  36    -0.089670154640226
  37                     0
  38                     0
  39                     0
  40                     0
  41                     0
  42                     0
  43                     0
  44                     0
  45                     0
  46    0.0045337746972894
  47                     0
  48                     0
  49    0.0052362357174313
  50                     0
  51                     0
  52                     0
  53                     0
  54                     0
  55     0.006591748969275
  56                     0
  57                     0
  58    -0.0013128596146152
  59                     0
  60                     0
  61                     0
  62                     0
  63                     0
  64                     0
  65                     0
  66                     0
  67                     0
  68    -0.0034296062304531
  69                     0
  70                     0
  71    0.0023631761812193
  72                     0
  73                     0
  74                     0
  75                     0
  76                     0
  77     0.006835431010182
  78                     0
  79                     0
  80    -0.0012378540060219
  81                     0
  82                     0
  83                     0
  84                     0
  85                     0
  86                     0
  87                     0
  88                     0
  89                     0
  90    -0.0010257075724652
  91                     0
  92                     0
  93    0.00079055736900332
  94                     0
  95                     0
  96                     0
  97                     0
  98                     0
  99    0.00062523447313212
 100                     0
 101                     0
 102    -0.0025371056262464
 103                     0
 104                     0
 105                     0
 106                     0
 107                     0
 108                     0
 109                     0
 110                     0
 111                     0
 112     0.001243505695238
 113                     0
 114                     0
 115    -0.0018230890913201
 116                     0
 117                     0
 118                     0
 119                     0
 120                     0
 121    -0.0027888886159249
 122                     0
 123                     0
 124    0.0041663070901523
 125                     0
 126                     0
 127                     0
 128                     0
 129                     0
 130                     0
 131                     0
 132                     0
 133                     0
 134                     0
 135                     0
 136                     0
 Sym= A
 Ene=               1
 Spin= Alpha
 Occup=    1.00000
   1                     0
   2                     0
   3                     0
   4                     0
   5                     0
   6    0.00031933100000839
   7                     0
   8                     0
   9    -0.0019308161574222
  10                     0
  11                     0
  12                     0
  13                     0
  14                     0
  15    0.0066341628364946
  16                     0
  17                     0
  18    -0.0010977311710671
  19                     0
  20                     0
  21                     0
  22                     0
  23                     0
  24    -0.002261696956375
  25                     0
  26                     0
  27    0.0035082950068042
  28                     0
  29                     0
  30                     0
  31                     0
  32                     0
  33    0.0067481806231832
  34                     0
  35                     0
  36    -0.0015974691836323
  37                     0
  38                     0
  39                     0
  40                     0
  41                     0
  42                     0
  43                     0
  44                     0
  45                     0
  46    -0.00057074749151173
  47                     0
  48                     0
  49    0.00032244970708814
  50                     0
  51                     0
  52                     0
  53                     0
  54                     0
  55     -0.11964902269236
  56                     0
  57                     0
  58    -0.089706325942329
  59                     0
  60                     0
  61                     0
  62                     0
  63                     0
  64                     0
  65                     0
  66                     0
  67                     0
  68    0.0010630013462548
  69                     0
  70                     0
  71    -0.0015824141329105
  72                     0
  73                     0
  74                     0
  75                     0
  76                     0
  77       0.6969832999931
  78                     0
  79                     0
  80      0.53084181619326
  81                     0
  82                     0
  83                     0
  84                     0
  85                     0
  86                     0
  87                     0
  88                     0
  89                     0
  90    0.00034679840351055
  91                     0
  92                     0
  93    -0.00023893277904129
  94                     0
  95                     0
  96                     0
  97                     0
  98                     0
  99    -0.075077233579279
 100                     0
 101                     0
 102     -0.10483719406799
 103                     0
 104                     0
 105                     0
 106                     0
 107                     0
 108                     0
 109                     0
 110                     0
 111                     0
 112    -0.00060981694665956
 113                     0
 114                     0
 115    0.00086579049359297
 116                     0
 117                     0
 118                     0
 119                     0
 120                     0
 121     0.029194251999227
 122                     0
 123                     0
 124     -0.01700605925874
 125                     0
 126                     0
 127                     0
 128                     0
 129                     0
 130                     0
 131                     0
 132                     0
 133                     0
 134                     0
 135                     0
 136                     0
 Sym= A
 Ene=               2
 Spin= Alpha
 Occup=    1.00000
   1                     0
   2                     0
   3                     0
   4                     0
   5                     0
   6    -0.00093201197028323
   7                     0
   8                     0
   9    0.00061422425253815
  10                     0
  11                     0
  12                     0
  13                     0
  14                     0
  15    -0.0031212868357744
  16                     0
  17                     0
  18    0.0018841570156214
  19                     0
  20                     0
  21                     0
  22                     0
  23                     0
  24    0.00082854155528149
  25                     0
  26                     0
  27    -0.001304618097394
  28                     0
  29                     0
  30                     0
  31                     0
  32                     0
  33    0.0043012166496173
  34                     0
  35                     0
  36    0.0054529930190391
  37                     0
  38                     0
  39                     0
  40                     0
  41                     0
  42                     0
  43                     0
  44                     0
  45                     0
  46    0.00034198072833344
  47                     0
  48                     0
  49    -0.0002101893964752
  50                     0
  51                     0
  52                     0
  53                     0
  54                     0
  55     0.021879607844813
  56                     0
  57                     0
  58     -0.01308713627641
  59                     0
  60                     0
  61                     0
  62                     0
  63                     0
  64                     0
  65                     0
  66                     0
  67                     0
  68    -0.00032072004219484
  69                     0
  70                     0
  71    0.00055200936059817
  72                     0
  73                     0
  74                     0
  75                     0
  76                     0
  77    -0.076297830164747
  78                     0
  79                     0
  80     -0.10639718805583
  81                     0
  82                     0
  83                     0
  84                     0
  85                     0
  86                     0
  87                     0
  88                     0
  89                     0
  90    -0.00013960695244991
  91                     0
  92                     0
  93    8.7470314833166e-05
  94                     0
  95                     0
  96                     0
  97                     0
  98                     0
  99      0.69313979802468
 100                     0
 101                     0
 102      0.53032087857323
 103                     0
 104                     0
 105                     0
 106                     0
 107                     0
 108                     0
 109                     0
 110                     0
 111                     0
 112    0.00017787025845675
 113                     0
 114                     0
 115    -0.00027365069454251
 116                     0
 117                     0
 118                     0
 119                     0
 120                     0
 121     -0.13056858387934
 122                     0
 123                     0
 124    -0.074329454079547
 125                     0
 126                     0
 127                     0
 128                     0
 129                     0
 130                     0
 131                     0
 132                     0
 133                     0
 134                     0
 135                     0
 136                     0
 Sym= A
 Ene=               3
 Spin= Alpha
 Occup=    1.00000
   1                     0
   2                     0
   3                     0
   4                     0
   5                     0
   6    -0.0020911431908104
   7                     0
   8                     0
   9    0.0033524088894885
  10                     0
  11                     0
  12                     0
  13                     0
  14                     0
  15    -0.00047500032325009
  16                     0
  17                     0
  18    0.00017569079306172
  19                     0
  20                     0
  21                     0
  22                     0
  23                     0
  24    0.00023711492052955
  25                     0
  26                     0
  27    -0.0017946521524516
  28                     0
  29                     0
  30                     0
  31                     0
  32                     0
  33    0.00097896794616749
  34                     0
  35                     0
  36    -0.0014553292192423
  37                     0
  38                     0
  39                     0
  40                     0
  41                     0
  42                     0
  43                     0
  44                     0
  45                     0
  46    0.0061115821376563
  47                     0
  48                     0
  49    -0.0013775585673302
  50                     0
  51                     0
  52                     0
  53                     0
  54                     0
  55    0.00027676955306213
  56                     0
  57                     0
  58    -0.00012192167829298
  59                     0
  60                     0
  61                     0
  62                     0
  63                     0
  64                     0
  65                     0
  66                     0
  67                     0
  68    0.0060213462713243
  69                     0
  70                     0
  71    0.0012120017391977
  72                     0
  73                     0
  74                     0
  75                     0
  76                     0
  77    -0.00046640972769585
  78                     0
  79                     0
  80    0.00067475234006663
  81                     0
  82                     0
  83                     0
  84                     0
  85                     0
  86                     0
  87                     0
  88                     0
  89                     0
  90     -0.11358661278897
  91                     0
  92                     0
  93    -0.093592170820233
  94                     0
  95                     0
  96                     0
  97                     0
  98                     0
  99    -0.00016481716867337
 100                     0
 101                     0
 102    0.0001302085126788
 103                     0
 104                     0
 105                     0
 106                     0
 107                     0
 108                     0
 109                     0
 110                     0
 111                     0
 112      0.67644767364115
 113                     0
 114                     0
 115      0.50277650292359
 116                     0
 117                     0
 118                     0
 119                     0
 120                     0
 121    0.00027776632075548
 122                     0
 123                     0
 124    -0.00040177433782297
 125                     0
 126                     0
 127                     0
 128                     0
 129                     0
 130                     0
 131                     0
 132                     0
 133                     0
 134                     0
 135                     0
 136                     0
 Sym= A
 Ene=               4
 Spin= Alpha
 Occup=    1.00000
   1                     0
   2                     0
   3                     0
   4                     0
   5                     0
   6    -0.00047500022265982
   7                     0
   8                     0
   9    0.00017569075477334
  10                     0
  11                     0
  12                     0
  13                     0
  14                     0
  15    -0.0020911451391477
  16                     0
  17                     0
  18    0.0033524061887464
  19                     0
  20                     0
  21                     0
  22                     0
  23                     0
  24    0.00097896758551613
  25                     0
  26                     0
  27    -0.0014553287863912
  28                     0
  29                     0
  30                     0
  31                     0
  32                     0
  33    0.00023711422795047
  34                     0
  35                     0
  36    -0.0017946536406257
  37                     0
  38                     0
  39                     0
  40                     0
  41                     0
  42                     0
  43                     0
  44                     0
  45                     0
  46    0.00027676950408032
  47                     0
  48                     0
  49    -0.00012192160026613
  50                     0
  51                     0
  52                     0
  53                     0
  54                     0
  55    0.0061115788442447
  56                     0
  57                     0
  58    -0.0013775553980242
  59                     0
  60                     0
  61                     0
  62                     0
  63                     0
  64                     0
  65                     0
  66                     0
  67                     0
  68    -0.00046640958234799
  69                     0
  70                     0
  71    0.00067475217442795
  72                     0
  73                     0
  74                     0