[Molden Format]
made by pyscf v[2.0.1]
[Atoms] (AU)
C   1   6     2.30715201389900    -1.36612962809100     0.00000000000000
C   2   6    -2.30715201389900    -1.36612962809100     0.00000000000000
C   3   6     2.30715201389900     1.36612962809100     0.00000000000000
C   4   6    -2.30715201389900     1.36612962809100     0.00000000000000
C   5   6     0.00000000000000    -2.64819012780300     0.00000000000000
C   6   6     0.00000000000000     2.64819012780300     0.00000000000000
C   7   6     6.92052984475300     1.36731216695600     0.00000000000000
C   8   6    -6.92052984475300     1.36731216695600     0.00000000000000
C   9   6     6.92052984475300    -1.36731216695600     0.00000000000000
C   10   6    -6.92052984475300    -1.36731216695600     0.00000000000000
C   11   6     4.65052830966800     2.64933873056800     0.00000000000000
C   12   6    -4.65052830966800     2.64933873056800     0.00000000000000
C   13   6     4.65052830966800    -2.64933873056800     0.00000000000000
C   14   6    -4.65052830966800    -2.64933873056800     0.00000000000000
C   15   6    11.51783390367000     1.35551508476500     0.00000000000000
C   16   6   -11.51783390367000     1.35551508476500     0.00000000000000
C   17   6    11.51783390367000    -1.35551508476500     0.00000000000000
C   18   6   -11.51783390367000    -1.35551508476500     0.00000000000000
C   19   6     9.31130451375400     2.65735609478700     0.00000000000000
C   20   6    -9.31130451375400     2.65735609478700     0.00000000000000
C   21   6     9.31130451375400    -2.65735609478700     0.00000000000000
C   22   6    -9.31130451375400    -2.65735609478700     0.00000000000000
H   23   1     0.00000000000000    -4.70240161787800     0.00000000000000
H   24   1     0.00000000000000     4.70240161787800     0.00000000000000
H   25   1     4.65001377033800    -4.70374453466600     0.00000000000000
H   26   1    -4.65001377033800    -4.70374453466600     0.00000000000000
H   27   1     4.65001377033800     4.70374453466600     0.00000000000000
H   28   1    -4.65001377033800     4.70374453466600     0.00000000000000
H   29   1    13.30875727782200    -2.35585338114900     0.00000000000000
H   30   1   -13.30875727782200    -2.35585338114900     0.00000000000000
H   31   1    13.30875727782200     2.35585338114900     0.00000000000000
H   32   1   -13.30875727782200     2.35585338114900     0.00000000000000
H   33   1     9.30395884603800    -4.71030603514400     0.00000000000000
H   34   1    -9.30395884603800    -4.71030603514400     0.00000000000000
H   35   1     9.30395884603800     4.71030603514400     0.00000000000000
H   36   1    -9.30395884603800     4.71030603514400     0.00000000000000
[GTO]
1 0
 s    6 1.00
             3047.5249  0.0018347001629433
             457.36951    0.01403730124668
             103.94869   0.068842606114048
             29.210155    0.23218442062076
              9.286663    0.46794134155879
              3.163927    0.36231203217765
 s    3 1.00
             7.8682724   -0.11933240861517
             1.8812885   -0.16085421161283
             0.5442493     1.1434564825515
 s    1 1.00
             0.1687144                   1
 p    3 1.00
             7.8682724   0.068999095584993
             1.8812885    0.31642397975315
             0.5442493    0.74430825237435
 p    1 1.00
             0.1687144                   1

2 0
 s    6 1.00
             3047.5249  0.0018347001629433
             457.36951    0.01403730124668
             103.94869   0.068842606114048
             29.210155    0.23218442062076
              9.286663    0.46794134155879
              3.163927    0.36231203217765
 s    3 1.00
             7.8682724   -0.11933240861517
             1.8812885   -0.16085421161283
             0.5442493     1.1434564825515
 s    1 1.00
             0.1687144                   1
 p    3 1.00
             7.8682724   0.068999095584993
             1.8812885    0.31642397975315
             0.5442493    0.74430825237435
 p    1 1.00
             0.1687144                   1

3 0
 s    6 1.00
             3047.5249  0.0018347001629433
             457.36951    0.01403730124668
             103.94869   0.068842606114048
             29.210155    0.23218442062076
              9.286663    0.46794134155879
              3.163927    0.36231203217765
 s    3 1.00
             7.8682724   -0.11933240861517
             1.8812885   -0.16085421161283
             0.5442493     1.1434564825515
 s    1 1.00
             0.1687144                   1
 p    3 1.00
             7.8682724   0.068999095584993
             1.8812885    0.31642397975315
             0.5442493    0.74430825237435
 p    1 1.00
             0.1687144                   1

4 0
 s    6 1.00
             3047.5249  0.0018347001629433
             457.36951    0.01403730124668
             103.94869   0.068842606114048
             29.210155    0.23218442062076
              9.286663    0.46794134155879
              3.163927    0.36231203217765
 s    3 1.00
             7.8682724   -0.11933240861517
             1.8812885   -0.16085421161283
             0.5442493     1.1434564825515
 s    1 1.00
             0.1687144                   1
 p    3 1.00
             7.8682724   0.068999095584993
             1.8812885    0.31642397975315
             0.5442493    0.74430825237435
 p    1 1.00
             0.1687144                   1

5 0
 s    6 1.00
             3047.5249  0.0018347001629433
             457.36951    0.01403730124668
             103.94869   0.068842606114048
             29.210155    0.23218442062076
              9.286663    0.46794134155879
              3.163927    0.36231203217765
 s    3 1.00
             7.8682724   -0.11933240861517
             1.8812885   -0.16085421161283
             0.5442493     1.1434564825515
 s    1 1.00
             0.1687144                   1
 p    3 1.00
             7.8682724   0.068999095584993
             1.8812885    0.31642397975315
             0.5442493    0.74430825237435
 p    1 1.00
             0.1687144                   1

6 0
 s    6 1.00
             3047.5249  0.0018347001629433
             457.36951    0.01403730124668
             103.94869   0.068842606114048
             29.210155    0.23218442062076
              9.286663    0.46794134155879
              3.163927    0.36231203217765
 s    3 1.00
             7.8682724   -0.11933240861517
             1.8812885   -0.16085421161283
             0.5442493     1.1434564825515
 s    1 1.00
             0.1687144                   1
 p    3 1.00
             7.8682724   0.068999095584993
             1.8812885    0.31642397975315
             0.5442493    0.74430825237435
 p    1 1.00
             0.1687144                   1

7 0
 s    6 1.00
             3047.5249  0.0018347001629433
             457.36951    0.01403730124668
             103.94869   0.068842606114048
             29.210155    0.23218442062076
              9.286663    0.46794134155879
              3.163927    0.36231203217765
 s    3 1.00
             7.8682724   -0.11933240861517
             1.8812885   -0.16085421161283
             0.5442493     1.1434564825515
 s    1 1.00
             0.1687144                   1
 p    3 1.00
             7.8682724   0.068999095584993
             1.8812885    0.31642397975315
             0.5442493    0.74430825237435
 p    1 1.00
             0.1687144                   1

8 0
 s    6 1.00
             3047.5249  0.0018347001629433
             457.36951    0.01403730124668
             103.94869   0.068842606114048
             29.210155    0.23218442062076
              9.286663    0.46794134155879
              3.163927    0.36231203217765
 s    3 1.00
             7.8682724   -0.11933240861517
             1.8812885   -0.16085421161283
             0.5442493     1.1434564825515
 s    1 1.00
             0.1687144                   1
 p    3 1.00
             7.8682724   0.068999095584993
             1.8812885    0.31642397975315
             0.5442493    0.74430825237435
 p    1 1.00
             0.1687144                   1

9 0
 s    6 1.00
             3047.5249  0.0018347001629433
             457.36951    0.01403730124668
             103.94869   0.068842606114048
             29.210155    0.23218442062076
              9.286663    0.46794134155879
              3.163927    0.36231203217765
 s    3 1.00
             7.8682724   -0.11933240861517
             1.8812885   -0.16085421161283
             0.5442493     1.1434564825515
 s    1 1.00
             0.1687144                   1
 p    3 1.00
             7.8682724   0.068999095584993
             1.8812885    0.31642397975315
             0.5442493    0.74430825237435
 p    1 1.00
             0.1687144                   1

10 0
 s    6 1.00
             3047.5249  0.0018347001629433
             457.36951    0.01403730124668
             103.94869   0.068842606114048
             29.210155    0.23218442062076
              9.286663    0.46794134155879
              3.163927    0.36231203217765
 s    3 1.00
             7.8682724   -0.11933240861517
             1.8812885   -0.16085421161283
             0.5442493     1.1434564825515
 s    1 1.00
             0.1687144                   1
 p    3 1.00
             7.8682724   0.068999095584993
             1.8812885    0.31642397975315
             0.5442493    0.74430825237435
 p    1 1.00
             0.1687144                   1

11 0
 s    6 1.00
             3047.5249  0.0018347001629433
             457.36951    0.01403730124668
             103.94869   0.068842606114048
             29.210155    0.23218442062076
              9.286663    0.46794134155879
              3.163927    0.36231203217765
 s    3 1.00
             7.8682724   -0.11933240861517
             1.8812885   -0.16085421161283
             0.5442493     1.1434564825515
 s    1 1.00
             0.1687144                   1
 p    3 1.00
             7.8682724   0.068999095584993
             1.8812885    0.31642397975315
             0.5442493    0.74430825237435
 p    1 1.00
             0.1687144                   1

12 0
 s    6 1.00
             3047.5249  0.0018347001629433
             457.36951    0.01403730124668
             103.94869   0.068842606114048
             29.210155    0.23218442062076
              9.286663    0.46794134155879
              3.163927    0.36231203217765
 s    3 1.00
             7.8682724   -0.11933240861517
             1.8812885   -0.16085421161283
             0.5442493     1.1434564825515
 s    1 1.00
             0.1687144                   1
 p    3 1.00
             7.8682724   0.068999095584993
             1.8812885    0.31642397975315
             0.5442493    0.74430825237435
 p    1 1.00
             0.1687144                   1

13 0
 s    6 1.00
             3047.5249  0.0018347001629433
             457.36951    0.01403730124668
             103.94869   0.068842606114048
             29.210155    0.23218442062076
              9.286663    0.46794134155879
              3.163927    0.36231203217765
 s    3 1.00
             7.8682724   -0.11933240861517
             1.8812885   -0.16085421161283
             0.5442493     1.1434564825515
 s    1 1.00
             0.1687144                   1
 p    3 1.00
             7.8682724   0.068999095584993
             1.8812885    0.31642397975315
             0.5442493    0.74430825237435
 p    1 1.00
             0.1687144                   1

14 0
 s    6 1.00
             3047.5249  0.0018347001629433
             457.36951    0.01403730124668
             103.94869   0.068842606114048
             29.210155    0.23218442062076
              9.286663    0.46794134155879
              3.163927    0.36231203217765
 s    3 1.00
             7.8682724   -0.11933240861517
             1.8812885   -0.16085421161283
             0.5442493     1.1434564825515
 s    1 1.00
             0.1687144                   1
 p    3 1.00
             7.8682724   0.068999095584993
             1.8812885    0.31642397975315
             0.5442493    0.74430825237435
 p    1 1.00
             0.1687144                   1

15 0
 s    6 1.00
             3047.5249  0.0018347001629433
             457.36951    0.01403730124668
             103.94869   0.068842606114048
             29.210155    0.23218442062076
              9.286663    0.46794134155879
              3.163927    0.36231203217765
 s    3 1.00
             7.8682724   -0.11933240861517
             1.8812885   -0.16085421161283
             0.5442493     1.1434564825515
 s    1 1.00
             0.1687144                   1
 p    3 1.00
             7.8682724   0.068999095584993
             1.8812885    0.31642397975315
             0.5442493    0.74430825237435
 p    1 1.00
             0.1687144                   1

16 0
 s    6 1.00
             3047.5249  0.0018347001629433
             457.36951    0.01403730124668
             103.94869   0.068842606114048
             29.210155    0.23218442062076
              9.286663    0.46794134155879
              3.163927    0.36231203217765
 s    3 1.00
             7.8682724   -0.11933240861517
             1.8812885   -0.16085421161283
             0.5442493     1.1434564825515
 s    1 1.00
             0.1687144                   1
 p    3 1.00
             7.8682724   0.068999095584993
             1.8812885    0.31642397975315
             0.5442493    0.74430825237435
 p    1 1.00
             0.1687144                   1

17 0
 s    6 1.00
             3047.5249  0.0018347001629433
             457.36951    0.01403730124668
             103.94869   0.068842606114048
             29.210155    0.23218442062076
              9.286663    0.46794134155879
              3.163927    0.36231203217765
 s    3 1.00
             7.8682724   -0.11933240861517
             1.8812885   -0.16085421161283
             0.5442493     1.1434564825515
 s    1 1.00
             0.1687144                   1
 p    3 1.00
             7.8682724   0.068999095584993
             1.8812885    0.31642397975315
             0.5442493    0.74430825237435
 p    1 1.00
             0.1687144                   1

18 0
 s    6 1.00
             3047.5249  0.0018347001629433
             457.36951    0.01403730124668
             103.94869   0.068842606114048
             29.210155    0.23218442062076
              9.286663    0.46794134155879
              3.163927    0.36231203217765
 s    3 1.00
             7.8682724   -0.11933240861517
             1.8812885   -0.16085421161283
             0.5442493     1.1434564825515
 s    1 1.00
             0.1687144                   1
 p    3 1.00
             7.8682724   0.068999095584993
             1.8812885    0.31642397975315
             0.5442493    0.74430825237435
 p    1 1.00
             0.1687144                   1

19 0
 s    6 1.00
             3047.5249  0.0018347001629433
             457.36951    0.01403730124668
             103.94869   0.068842606114048
             29.210155    0.23218442062076
              9.286663    0.46794134155879
              3.163927    0.36231203217765
 s    3 1.00
             7.8682724   -0.11933240861517
             1.8812885   -0.16085421161283
             0.5442493     1.1434564825515
 s    1 1.00
             0.1687144                   1
 p    3 1.00
             7.8682724   0.068999095584993
             1.8812885    0.31642397975315
             0.5442493    0.74430825237435
 p    1 1.00
             0.1687144                   1

20 0
 s    6 1.00
             3047.5249  0.0018347001629433
             457.36951    0.01403730124668
             103.94869   0.068842606114048
             29.210155    0.23218442062076
              9.286663    0.46794134155879
              3.163927    0.36231203217765
 s    3 1.00
             7.8682724   -0.11933240861517
             1.8812885   -0.16085421161283
             0.5442493     1.1434564825515
 s    1 1.00
             0.1687144                   1
 p    3 1.00
             7.8682724   0.068999095584993
             1.8812885    0.31642397975315
             0.5442493    0.74430825237435
 p    1 1.00
             0.1687144                   1

21 0
 s    6 1.00
             3047.5249  0.0018347001629433
             457.36951    0.01403730124668
             103.94869   0.068842606114048
             29.210155    0.23218442062076
              9.286663    0.46794134155879
              3.163927    0.36231203217765
 s    3 1.00
             7.8682724   -0.11933240861517
             1.8812885   -0.16085421161283
             0.5442493     1.1434564825515
 s    1 1.00
             0.1687144                   1
 p    3 1.00
             7.8682724   0.068999095584993
             1.8812885    0.31642397975315
             0.5442493    0.74430825237435
 p    1 1.00
             0.1687144                   1

22 0
 s    6 1.00
             3047.5249  0.0018347001629433
             457.36951    0.01403730124668
             103.94869   0.068842606114048
             29.210155    0.23218442062076
              9.286663    0.46794134155879
              3.163927    0.36231203217765
 s    3 1.00
             7.8682724   -0.11933240861517
             1.8812885   -0.16085421161283
             0.5442493     1.1434564825515
 s    1 1.00
             0.1687144                   1
 p    3 1.00
             7.8682724   0.068999095584993
             1.8812885    0.31642397975315
             0.5442493    0.74430825237435
 p    1 1.00
             0.1687144                   1

23 0
 s    3 1.00
             18.731137    0.03349459952309
             2.8253937    0.23472694665786
             0.6401217    0.81375731841339
 s    1 1.00
             0.1612778                   1

24 0
 s    3 1.00
             18.731137    0.03349459952309
             2.8253937    0.23472694665786
             0.6401217    0.81375731841339
 s    1 1.00
             0.1612778                   1

25 0
 s    3 1.00
             18.731137    0.03349459952309
             2.8253937    0.23472694665786
             0.6401217    0.81375731841339
 s    1 1.00
             0.1612778                   1

26 0
 s    3 1.00
             18.731137    0.03349459952309
             2.8253937    0.23472694665786
             0.6401217    0.81375731841339
 s    1 1.00
             0.1612778                   1

27 0
 s    3 1.00
             18.731137    0.03349459952309
             2.8253937    0.23472694665786
             0.6401217    0.81375731841339
 s    1 1.00
             0.1612778                   1

28 0
 s    3 1.00
             18.731137    0.03349459952309
             2.8253937    0.23472694665786
             0.6401217    0.81375731841339
 s    1 1.00
             0.1612778                   1

29 0
 s    3 1.00
             18.731137    0.03349459952309
             2.8253937    0.23472694665786
             0.6401217    0.81375731841339
 s    1 1.00
             0.1612778                   1

30 0
 s    3 1.00
             18.731137    0.03349459952309
             2.8253937    0.23472694665786
             0.6401217    0.81375731841339
 s    1 1.00
             0.1612778                   1

31 0
 s    3 1.00
             18.731137    0.03349459952309
             2.8253937    0.23472694665786
             0.6401217    0.81375731841339
 s    1 1.00
             0.1612778                   1

32 0
 s    3 1.00
             18.731137    0.03349459952309
             2.8253937    0.23472694665786
             0.6401217    0.81375731841339
 s    1 1.00
             0.1612778                   1

33 0
 s    3 1.00
             18.731137    0.03349459952309
             2.8253937    0.23472694665786
             0.6401217    0.81375731841339
 s    1 1.00
             0.1612778                   1

34 0
 s    3 1.00
             18.731137    0.03349459952309
             2.8253937    0.23472694665786
             0.6401217    0.81375731841339
 s    1 1.00
             0.1612778                   1

35 0
 s    3 1.00
             18.731137    0.03349459952309
             2.8253937    0.23472694665786
             0.6401217    0.81375731841339
 s    1 1.00
             0.1612778                   1

36 0
 s    3 1.00
             18.731137    0.03349459952309
             2.8253937    0.23472694665786
             0.6401217    0.81375731841339
 s    1 1.00
             0.1612778                   1

[5d]
[7f]
[9g]

[MO]
 Sym= B1u
 Ene=               0
 Spin= Alpha
 Occup=    1.00000
   1                     0
   2                     0
   3                     0
   4                     0
   5                     0
   6      0.15885515320215
   7                     0
   8                     0
   9     0.092876104795071
  10                     0
  11                     0
  12                     0
  13                     0
  14                     0
  15      0.15885515320215
  16                     0
  17                     0
  18     0.092876104795071
  19                     0
  20                     0
  21                     0
  22                     0
  23                     0
  24      0.15885515320215
  25                     0
  26                     0
  27     0.092876104795071
  28                     0
  29                     0
  30                     0
  31                     0
  32                     0
  33      0.15885515320215
  34                     0
  35                     0
  36     0.092876104795071
  37                     0
  38                     0
  39                     0
  40                     0
  41                     0
  42      0.13351126236635
  43                     0
  44                     0
  45     0.074617897431635
  46                     0
  47                     0
  48                     0
  49                     0
  50                     0
  51      0.13351126236635
  52                     0
  53                     0
  54     0.074617897431635
  55                     0
  56                     0
  57                     0
  58                     0
  59                     0
  60      0.11608698901771
  61                     0
  62                     0
  63     0.067944498969778
  64                     0
  65                     0
  66                     0
  67                     0
  68                     0
  69      0.11608698901771
  70                     0
  71                     0
  72     0.067944498969778
  73                     0
  74                     0
  75                     0
  76                     0
  77                     0
  78      0.11608698901771
  79                     0
  80                     0
  81     0.067944498969778
  82                     0
  83                     0
  84                     0
  85                     0
  86                     0
  87      0.11608698901771
  88                     0
  89                     0
  90     0.067944498969778
  91                     0
  92                     0
  93                     0
  94                     0
  95                     0
  96      0.11425828944792
  97                     0
  98                     0
  99     0.063562038544347
 100                     0
 101                     0
 102                     0
 103                     0
 104                     0
 105      0.11425828944792
 106                     0
 107                     0
 108     0.063562038544347
 109                     0
 110                     0
 111                     0
 112                     0
 113                     0
 114      0.11425828944792
 115                     0
 116                     0
 117     0.063562038544347
 118                     0
 119                     0
 120                     0
 121                     0
 122                     0
 123      0.11425828944792
 124                     0
 125                     0
 126     0.063562038544347
 127                     0
 128                     0
 129                     0
 130                     0
 131                     0
 132     0.047732532124785
 133                     0
 134                     0
 135      0.02759370954829
 136                     0
 137                     0
 138                     0
 139                     0
 140                     0
 141     0.047732532124785
 142                     0
 143                     0
 144      0.02759370954829
 145                     0
 146                     0
 147                     0
 148                     0
 149                     0
 150     0.047732532124785
 151                     0
 152                     0
 153      0.02759370954829
 154                     0
 155                     0
 156                     0
 157                     0
 158                     0
 159     0.047732532124785
 160                     0
 161                     0
 162      0.02759370954829
 163                     0
 164                     0
 165                     0
 166                     0
 167                     0
 168     0.063451865948486
 169                     0
 170                     0
 171     0.034631666452632
 172                     0
 173                     0
 174                     0
 175                     0
 176                     0
 177     0.063451865948486
 178                     0
 179                     0
 180     0.034631666452632
 181                     0
 182                     0
 183                     0
 184                     0
 185                     0
 186     0.063451865948486
 187                     0
 188                     0
 189     0.034631666452632
 190                     0
 191                     0
 192                     0
 193                     0
 194                     0
 195     0.063451865948486
 196                     0
 197                     0
 198     0.034631666452632
 199                     0
 200                     0
 201                     0
 202                     0
 203                     0
 204                     0
 205                     0
 206                     0
 207                     0
 208                     0
 209                     0
 210                     0
 211                     0
 212                     0
 213                     0
 214                     0
 215                     0
 216                     0
 217                     0
 218                     0
 219                     0
 220                     0
 221                     0
 222                     0
 223                     0
 224                     0
 225                     0
 226                     0
 Sym= B2g
 Ene=               1
 Spin= Alpha
 Occup=    1.00000
   1                     0
   2                     0
   3                     0
   4                     0
   5                     0
   6     0.080454967512645
   7                     0
   8                     0
   9     0.048661772028079
  10                     0
  11                     0
  12                     0
  13                     0
  14                     0
  15    -0.080454967512645
  16                     0
  17                     0
  18    -0.048661772028079
  19                     0
  20                     0
  21                     0
  22                     0
  23                     0
  24     0.080454967512645
  25                     0
  26                     0
  27     0.048661772028079
  28                     0
  29                     0
  30                     0
  31                     0
  32                     0
  33    -0.080454967512645
  34                     0
  35                     0
  36    -0.048661772028079
  37                     0
  38                     0
  39                     0
  40                     0
  41                     0
  42                     0
  43                     0
  44                     0
  45                     0
  46                     0
  47                     0
  48                     0
  49                     0
  50                     0
  51                     0
  52                     0
  53                     0
  54                     0
  55                     0
  56                     0
  57                     0
  58                     0
  59                     0
  60      0.16341385590604
  61                     0
  62                     0
  63     0.098993066451025
  64                     0
  65                     0
  66                     0
  67                     0
  68                     0
  69     -0.16341385590604
  70                     0
  71                     0
  72    -0.098993066451025
  73                     0
  74                     0
  75                     0
  76                     0
  77                     0
  78      0.16341385590604
  79                     0
  80                     0
  81     0.098993066451025
  82                     0
  83                     0
  84                     0
  85                     0
  86                     0
  87     -0.16341385590604
  88                     0
  89                     0
  90    -0.098993066451025
  91                     0
  92                     0
  93                     0
  94                     0
  95                     0
  96      0.11455739348118
  97                     0
  98                     0
  99     0.068348789439064
 100                     0
 101                     0
 102                     0
 103                     0
 104                     0
 105     -0.11455739348118
 106                     0
 107                     0
 108    -0.068348789439064
 109                     0
 110                     0
 111                     0
 112                     0
 113                     0
 114      0.11455739348118
 115                     0
 116                     0
 117     0.068348789439064
 118                     0
 119                     0
 120                     0
 121                     0
 122                     0
 123     -0.11455739348118
 124                     0
 125                     0