 &FCI NORB=  22,NELEC=22,MS2=0,
  ORBSYM=1,1,1,1,1,1,1,1,1,1,1,1,1,1,1,1,1,1,1,1,1,1,
  ISYM=1,
 &END
 0.1994303006835404    1    1    1    1
 0.1635151779408778    1    1    2    2
 -0.03469828103027391    1    1    3    1
 0.1599429430267119    1    1    3    3
 -0.03638188029930012    1    1    4    2
 0.1572044678675548    1    1    4    4
 0.1932093759844735    1    1    5    5
 0.1598238808576292    1    1    6    6
 0.000582035336775842    1    1    7    1
 -0.03759291157501044    1    1    7    3
 0.1531836914086326    1    1    7    7
 -0.0322743729585837    1    1    8    5
 0.1565792129572904    1    1    8    8
 0.001221982420057008    1    1    9    2
 -0.04023581974602754    1    1    9    4
 0.1866908977305147    1    1    9    9
 -0.03332108486656092    1    1   10    6
 0.1545004985931612    1    1   10   10
 -0.0002563440401033123    1    1   11    5
 0.03296559211521818    1    1   11    8
 0.1756964858196774    1    1   11   11
 0.0002315072957968068    1    1   12    1
 0.0002492430793347565    1    1   12    3
 -0.02010598260486504    1    1   12    7
 0.1761491464038331    1    1   12   12
 0.001501148551231276    1    1   13    2
 0.0001432185783870523    1    1   13    4
 0.02831992190151802    1    1   13    9
 0.1550217867826272    1    1   13   13
 -0.001330844669689164    1    1   14    6
 0.02729929922218385    1    1   14   10
 0.1847447839685808    1    1   14   14
 0.002284601284112711    1    1   15    1
 -0.003909951108871098    1    1   15    3
 0.01004246500055696    1    1   15    7
 0.03397092115499287    1    1   15   12
 0.1585272828808559    1    1   15   15
 0.000464337647851339    1    1   16    5
 -0.009688776081799048    1    1   16    8
 0.01995125314404872    1    1   16   11
 0.1503146085108534    1    1   16   16
 -0.00589058178997721    1    1   17    2
 0.006499381666662398    1    1   17    4
 -0.002127547525428453    1    1   17    9
 -0.03366644086276114    1    1   17   13
 0.1649950358341812    1    1   17   17
 -0.0103149926672607    1    1   18    1
 0.005010351319953869    1    1   18    3
 -0.0009174208999784614    1    1   18    7
 -0.0009649549197347678    1    1   18   12
 -0.03138918907822752    1    1   18   15
 0.1991912059833897    1    1   18   18
 -0.005936107314224344    1    1   19    6
 0.0001190591487295442    1    1   19   10
 0.04216559713729316    1    1   19   14
 0.1578626130869438    1    1   19   19
 -0.004314157177758406    1    1   20    5
 0.003819611441289005    1    1   20    8
 -0.0008244354626024093    1    1   20   11
 -0.03809152558335253    1    1   20   16
 0.1629493908961566    1    1   20   20
 0.005634372165616917    1    1   21    6
 -0.001530911387672482    1    1   21   10
 -0.001828279083529247    1    1   21   14
 -0.03609548975114857    1    1   21   19
 0.169758475858584    1    1   21   21
 -0.01007358188543962    1    1   22    5
 0.002766870517790063    1    1   22    8
 0.0004036896451104296    1    1   22   11
 -0.00122746959391023    1    1   22   16
 0.0333933532022037    1    1   22   20
 0.206266499873818    1    1   22   22
 0.06207826402839427    2    1    2    1
 0.04126110046047892    2    1    3    2
 -0.02213448151833695    2    1    4    1
 0.039597626671659    2    1    4    3
 0.05887481454913306    2    1    6    5
 -0.02300106881145689    2    1    7    2
 0.03661337099437477    2    1    7    4
 0.03956818496860293    2    1    8    6
 0.001335649402702708    2    1    9    1
 -0.02576517610853695    2    1    9    3
 0.0549214423432023    2    1    9    7
 -0.01967962497854033    2    1   10    5
 0.03841572682217993    2    1   10    8
 0.01984480029849212    2    1   11    6
 -0.04795700418529237    2    1   11   10
 0.0002927964582728534    2    1   12    2
 -0.01650775991252802    2    1   12    4
 0.03026464904169811    2    1   12    9
 0.001342371763945698    2    1   13    1
 0.001402077927619413    2    1   13    3
 0.0074464238445807    2    1   13    7
 -0.04832895857290985    2    1   13   12
 -0.001209986635329637    2    1   14    5
 0.01978956863878858    2    1   14    8
 0.02884069500913874    2    1   14   11
 -0.001259199148222096    2    1   15    2
 -0.002697495038704201    2    1   15    4
 0.02070169498408693    2    1   15    9
 0.03906967985492578    2    1   15   13
 -0.006807656810996869    2    1   16    6
 -0.007536821736575079    2    1   16   10
 -0.05566813656992606    2    1   16   14
 -0.00490186640739198    2    1   17    1
 -0.003164508395743837    2    1   17    3
 0.007159434769336185    2    1   17    7
 0.02039184503676265    2    1   17   12
 0.04189702347798824    2    1   17   15
 -0.006277106017180996    2    1   18    2
 0.004979919575815539    2    1   18    4
 -0.00173085830555243    2    1   18    9
 -0.01965702546495347    2    1   18   13
 0.05968007071800439    2    1   18   17
 -0.004511131515580379    2    1   19    5
 0.002837659380892299    2    1   19    8
 0.01675860752160947    2    1   19   11
 0.03538210081729521    2    1   19   16
 0.003220329035442829    2    1   20    6
 -0.001225864284081959    2    1   20   10
 0.02720335814025254    2    1   20   14
 0.04069054385122488    2    1   20   19
 0.006252099440034788    2    1   21    5
 0.001178145516713222    2    1   21    8
 -0.000297604274904788    2    1   21   11
 -0.02305692421472361    2    1   21   16
 0.04417227403170927    2    1   21   20
 -0.004986823497080763    2    1   22    6
 0.001657275371995072    2    1   22   10
 0.001749373732325869    2    1   22   14
 0.02163527110114098    2    1   22   19
 -0.06345751536535721    2    1   22   21
 0.1635151779408778    2    2    1    1
 0.1720401758680428    2    2    2    2
 0.008009397839455349    2    2    3    1
 0.1553573473092229    2    2    3    3
 -0.009278881131863254    2    2    4    2
 0.1513689905683762    2    2    4    4
 0.1590801071502542    2    2    5    5
 0.1667368349984155    2    2    6    6
 -0.01638730435666363    2    2    7    1
 -0.01354643678022342    2    2    7    3
 0.1610972415161499    2    2    7    7
 0.007404940083414754    2    2    8    5
 0.1516816578113587    2    2    8    8
 -0.0180533959929877    2    2    9    2
 -0.003324119107704493    2    2    9    4
 0.1666779847062811    2    2    9    9
 -0.007586429745953078    2    2   10    6
 0.1554596086897122    2    2   10   10
 0.01388369440527426    2    2   11    5
 0.001871790639817454    2    2   11    8
 0.1559489475629763    2    2   11   11
 4.250454258802302e-05    2    2   12    1
 -0.0125773458755899    2    2   12    3
 0.002858364969676845    2    2   12    7
 0.1577578334613907    2    2   12   12
 0.00236713626812496    2    2   13    2
 0.007787182226190053    2    2   13    4
 0.002843817821514529    2    2   13    9
 0.1573028162449167    2    2   13   13
 0.0142812792790155    2    2   14    6
 0.002542162701287849    2    2   14   10
 0.1663554905414491    2    2   14   14
 -0.0008353279357867854    2    2   15    1
 -0.004549258496999972    2    2   15    3
 0.01483031967302334    2    2   15    7
 0.002886428814736177    2    2   15   12
 0.1551609833498238    2    2   15   15
 -0.005341584820466293    2    2   16    5
 -0.01441681483733757    2    2   16    8
 -0.001965487074879867    2    2   16   11
 0.1610337255178541    2    2   16   16
 -0.008620486399091559    2    2   17    2
 0.003249472006975324    2    2   17    4
 0.01420206653436323    2    2   17    9
 -0.007402096269600809    2    2   17   13
 0.1703547034100055    2    2   17   17
 -0.007589359324683291    2    2   18    1
 -0.001196483382465989    2    2   18    3
 0.005159888131163891    2    2   18    7
 0.01342897660035559    2    2   18   12
 0.00782209937471689    2    2   18   15
 0.1618357156837315    2    2   18   18
 -0.002668034982771665    2    2   19    6
 -0.00816996092435167    2    2   19   10
 0.004236209151499115    2    2   19   14
 0.1519247179783092    2    2   19   19
 0.001762823035396203    2    2   20    5
 0.004381265060308942    2    2   20    8
 0.01206122285952846    2    2   20   11
 -0.01483729281017664    2    2   20   16
 0.159573489184595    2    2   20   20
 0.008456829790003716    2    2   21    6
 -0.002077183949904769    2    2   21   10
 0.0186600589157172    2    2   21   14
 -0.007757683177542462    2    2   21   19
 0.1763761853676325    2    2   21   21
 -0.007259774850132831    2    2   22    5
 -0.0009176268514811091    2    2   22    8
 -4.186357018195769e-05    2    2   22   11
 0.01559247142551097    2    2   22   16
 -0.009303003308041971    2    2   22   20
 0.1665415459838601    2    2   22   22
 -0.0346982810302739    3    1    1    1
 0.008009397839455387    3    1    2    2
 0.04105183534758935    3    1    3    1
 -0.004535533975345774    3    1    3    3
 0.02612263163630619    3    1    4    2
 -0.005746951254477788    3    1    4    4
 -0.03281694994715444    3    1    5    5
 0.0065600561924736    3    1    6    6
 -0.01626006418021824    3    1    7    1
 0.02319917058455203    3    1    7    3
 0.007500516714130701    3    1    7    7
 0.0380629117564809    3    1    8    5
 -0.00471838896759858    3    1    8    8
 -0.01849431530215023    3    1    9    2
 0.03563488390087138    3    1    9    4
 -0.01961160535818889    3    1    9    9
 0.02472245000288341    3    1   10    6
 0.0008924462021119275    3    1   10   10
 0.01352386175674427    3    1   11    5
 -0.02982054403452531    3    1   11    8
 -0.01887147916065548    3    1   11   11
 -0.0002125158567255226    3    1   12    1
 -0.01216356838502339    3    1   12    3
 0.02190699854139593    3    1   12    7
 -0.01758799923700492    3    1   12   12
 0.0007115424015442337    3    1   13    2
 0.007464265067993425    3    1   13    4
 -0.02459884784024845    3    1   13    9
 0.002133462902356699    3    1   13   13
 0.01497047522444913    3    1   14    6
 -0.02387875176631064    3    1   14   10
 -0.0180179369571029    3    1   14   14
 -0.003133125427360643    3    1   15    1
 -0.000431942245471676    3    1   15    3
 0.004429514387473387    3    1   15    7
 -0.02983212466606388    3    1   15   12
 -0.003285463850080648    3    1   15   15
 -0.005583607082873764    3    1   16    5
 -0.00439070266458026    3    1   16    8
 -0.02091307579026474    3    1   16   11
 0.0102034502475634    3    1   16   16
 -0.002435117306934429    3    1   17    2
 -0.003257421299654444    3    1   17    4
 0.01567575187465734    3    1   17    9
 0.02525430163000604    3    1   17   13
 0.005033029932210415    3    1   17   17
 0.002959597690213833    3    1   18    1
 -0.006110563994906992    3    1   18    3
 0.005855491828750146    3    1   18    7
 0.01377803312238061    3    1   18   12
 0.03764780173478592    3    1   18   15
 -0.03598987478375658    3    1   18   18
 0.003251399533552756    3    1   19    6
 -0.008067529018213386    3    1   19   10
 -0.03661649221599944    3    1   19   14
 -0.005852353402914736    3    1   19   19
 0.005956496929196144    3    1   20    5
 0.0003708407274958053    3    1   20    8
 0.01222718648123826    3    1   20   11
 0.02244937859589473    3    1   20   16
 -0.003400216561387606    3    1   20   20
 0.002534698752836147    3    1   21    6
 -0.0004075789173372327    3    1   21   10
 0.01966270054476933    3    1   21   14
 0.02731921920582046    3    1   21   19
 0.006143056754473263    3    1   21   21
 0.003020523959125915    3    1   22    5
 -0.003674768501529531    3    1   22    8
 -0.000456848901905859    3    1   22   11
 0.0161264924158683    3    1   22   16
 -0.04106460008374333    3    1   22   20
 -0.03843436795532    3    1   22   22
 0.04126110046047892    3    2    2    1
 0.05153319032742849    3    2    3    2
 0.007849581099359248    3    2    4    1
 0.03824943266076573    3    2    4    3
 0.03925469296558168    3    2    6    5
 -0.007170490586233819    3    2    7    2
 0.04553883900995159    3    2    7    4
 0.04828505191851119    3    2    8    6
 -0.01402346217947485    3    2    9    1
 -5.487179345919134e-05    3    2    9    3
 0.04724943397518463    3    2    9    7
 0.007326197614103636    3    2   10    5
 0.04147422019720746    3    2   10    8
 -0.0007509763104876959    3    2   11    6
 -0.0406336264532334    3    2   11   10
 -0.009318247667408422    3    2   12    2
 0.0006252214939965004    3    2   12    4
 0.02647743085274088    3    2   12    9
 0.0002091490508065709    3    2   13    1
 0.007533901192092651    3    2   13    3
 -0.009627321439970362    3    2   13    7
 -0.04232825609312554    3    2   13   12
 0.01150082602228231    3    2   14    5
 0.0005747376836171417    3    2   14    8
 0.02538123536064701    3    2   14   11
 -0.003642554231851583    3    2   15    2
 0.003700901931771707    3    2   15    4
 0.001288672615988939    3    2   15    9
 0.04316335460961988    3    2   15   13
 -0.01024802544961089    3    2   16    6
 0.009133770420949075    3    2   16   10
 -0.04917472227610194    3    2   16   14
 -0.003011649468763684    3    2   17    1
 -0.005968576478597762    3    2   17    3
 0.01049326883979085    3    2   17    7
 -3.777099346932519e-05    3    2   17   12
 0.04919740630938384    3    2   17   15
 -0.003867755296399361    3    2   18    2
 -0.001163348461451838    3    2   18    4
 0.01126246025355646    3    2   18    9
 0.006455617100663721    3    2   18   13
 0.03857851076456395    3    2   18   17
 0.001564065855951533    3    2   19    5
 -0.004028813114812399    3    2   19    8
 0.0004144534160710106    3    2   19   11
 0.04669112827465233    3    2   19   16
 0.006028938682723107    3    2   20    6
 -0.007811059582085939    3    2   20   10
 0.0005904619978339148    3    2   20   14
 0.03923272534086091    3    2   20   19
 0.003744449950035951    3    2   21    5
 0.003737718033967409    3    2   21    8
 0.008916551086350449    3    2   21   11
 -0.007672476961759457    3    2   21   16
 0.05259957719300359    3    2   21   20
 -0.002872657909772168    3    2   22    6
 -0.0002596025628211612    3    2   22   10
 -0.01431718578863294    3    2   22   14
 -0.007944134981455915    3    2   22   19
 -0.04038602721696793    3    2   22   21
 0.1599429430267119    3    3    1    1
 0.1553573473092228    3    3    2    2
 -0.004535533975345789    3    3    3    1
 0.160099133694276    3    3    3    3
 6.206582003488925e-05    3    3    4    2
 0.1560585321904091    3    3    4    4
 0.1553899107855433    3    3    5    5
 0.1510361999536924    3    3    6    6
 0.004316732221708445    3    3    7    1
 -0.004147322555620845    3    3    7    3
 0.1557627332424771    3    3    7    7
 -0.004121906411899951    3    3    8    5
 0.1580421356911058    3    3    8    8
 0.0009712252498756491    3    3    9    2
 -0.005343872172405327    3    3    9    4
 0.1628645864005554    3    3    9    9
 0.003370251026468814    3    3   10    6
 0.1505541186562915    3    3   10   10
 -0.007892704444891756    3    3   11    5
 0.003666117290183235    3    3   11    8
 0.1519575948258279    3    3   11   11
 -0.005976702170509786    3    3   12    1
 7.318537695518501e-05    3    3   12    3
 0.002246085120242887    3    3   12    7
 0.1538040819881607    3    3   12   12
 0.005753920167146123    3    3   13    2
 -0.00552411283150213    3    3   13    4
 0.003618360649635851    3    3   13    9
 0.1534091661998661    3    3   13   13
 -0.0005782333099685991    3    3   14    6
 0.003321929832084583    3    3   14   10
 0.1628228837592124    3    3   14   14
 0.0003029593597847913    3    3   15    1
 -0.001199211657406012    3    3   15    3
 0.001271003802294037    3    3   15    7
 0.003387534342770941    3    3   15   12
 0.1603250224698143    3    3   15   15
 -0.003646032970938572    3    3   16    5
 -0.0009931789691037141    3    3   16    8
 -0.001641111713213957    3    3   16   11
 0.1568680424053238    3    3   16   16
 -0.006794407921581396    3    3   17    2
 0.005600268575264003    3    3   17    4
 -0.0007042393518782668    3    3   17    9
 0.00277162934220759    3    3   17   13
 0.1538434533455178    3    3   17   17
 -0.007663038787129273    3    3   18    1
 0.0009495228950085833    3    3   18    3
 0.003352635126701384    3    3   18    7
 -0.007191800202060149    3    3   18   12
 -0.00435482855163695    3    3   18   15
 0.1585909759608394    3    3   18   18
 -0.005353749165577847    3    3   19    6
 0.004882046481578582    3    3   19   10
 0.005141997344897715    3    3   19   14
 0.1584693439618379    3    3   19   19
 -0.0005079249920902529    3    3   20    5
 0.00080474395000442    3    3   20    8
 6.46164154787482e-05    3    3   20   11
 -0.0034306856238128    3    3   20   16
 0.1617472233998753    3    3   20   20
 0.006387301718019321    3    3   21    6
 -0.00546396620850947    3    3   21   10
 -0.001420785998399139    3    3   21   14
 -0.000547055952570584    3    3   21   19
 0.1581299247969753    3    3   21   21
 -0.007329156073390363    3    3   22    5
 0.0005843966073781681    3    3   22    8
 -0.005057304860800872    3    3   22   11
 -0.003811643346437144    3    3   22   16
 0.004676572598650246    3    3   22   20
 0.1633617456560617    3    3   22   22
 -0.02213448151833692    4    1    2    1
 0.007849581099359248    4    1    3    2
 0.02903266786754229    4    1    4    1
 -0.002811371316765845    4    1    4    3
 -0.02065903597776757    4    1    6    5
 0.01599166730685191    4    1    7    2
 0.007069620317282591    4    1    7    4
 0.006546582337627846    4    1    8    6
 -0.01433722785038218    4    1    9    1
 0.02550173781855865    4    1    9    3
 -0.00970654950544729    4    1    9    7
 0.02595753666975992    4    1   10    5
 0.001395847713242292    4    1   10    8
 -0.02000392571421878    4    1   11    6
 0.008485547980559496    4    1   11   10
 -0.00863947634421698    4    1   12    2
 0.01655262250133898    4    1   12    4
 -0.004922106963254042    4    1   12    9
 -0.001412796085493118    4    1   13    1
 0.005720118939103477    4    1   13    3
 -0.01621077637635956    4    1   13    7
 0.007282875476382405    4    1   13   12
 0.01184744022256063    4    1   14    5
 -0.01905175595518512    4    1   14    8
 -0.004566506708806201    4    1   14   11
 -0.002008173804726497    4    1   15    2
 0.006103606228195886    4    1   15    4
 -0.01931882473675003    4    1   15    9
 0.00230713417411982    4    1   15   13
 -0.00257089538050469    4    1   16    6
 0.01580583014365626    4    1   16   10
 0.00857400883086179    4    1   16   14
 0.002440220212406754    4    1   17    1
 -0.002357673069537386    4    1   17    3
 0.002444604609375261    4    1   17    7
 -0.01990648829958258    4    1   17   12
 0.005117462847770494    4    1   17   15
 0.002956268548903816    4    1   18    2
 -0.00624911147484687    4    1   18    4
 0.0121752960470016    4    1   18    9
 0.0251872919915718    4    1   18   13
 -0.02216246910890262    4    1   18   17
 0.006126921186007257    4    1   19    5
 -0.006573402572391927    4    1   19    8
 -0.01587272720337177    4    1   19   11
 0.009361542461737258    4    1   19   16
 0.002316683312337387    4    1   20    6
 -0.006104045088143668    4    1   20   10
 -0.02641411667998218    4    1   20   14
 -0.002976306611674747    4    1   20   19
 -0.003049357642669118    4    1   21    5
 0.002214008598838905    4    1   21    8
 0.008299896453685313    4    1   21   11
 0.01559753320753903    4    1   21   16
 0.005978151109526536    4    1   21   20
 0.002601639485662458    4    1   22    6
 -0.002131187536051894    4    1   22   10
 -0.01502914972496946    4    1   22   14
 -0.02867478869131582    4    1   22   19
 0.02439049798966397    4    1   22   21
 -0.03638188029930008    4    2    1    1
 -0.009278881131863245    4    2    2    2
 0.02612263163630619    4    2    3    1
 6.206582003491647e-05    4    2    3    3
 0.03371504502652097    4    2    4    2
 -0.0009141937277977976    4    2    4    4
 -0.03444428779871788    4    2    5    5
 -0.009373723562157248    4    2    6    6
 0.005189274331005951    4    2    7    1
 0.03127912032471767    4    2    7    3
 0.001434277780079625    4    2    7    7
 0.0243082725838255    4    2    8    5
 0.001667746310821235    4    2    8    8
 0.001621041389666896    4    2    9    2
 0.03157240003867073    4    2    9    4
 -0.02286250327566953    4    2    9    9
 0.03381159929795573    4    2   10    6
 -0.003878004366250981    4    2   10   10
 -0.00860536403633975    4    2   11    5
 -0.02627360033485689    4    2   11    8
 -0.02149281222764548    4    2   11   11
 -0.005851390412167936    4    2   12    1
 0.001217478210705651    4    2   12    3
 0.0195744457162208    4    2   12    7
 -0.02028377536208738    4    2   12   12
 0.003721171468276653    4    2   13    2
 -0.005803036566123847    4    2   13    4
 -0.02241629827846992    4    2   13    9
 -0.001786094945760904    4    2   13   13
 -0.0007805204746717932    4    2   14    6
 -0.02168064919319201    4    2   14   10
 -0.0210316530941894    4    2   14   14
 -0.001801604698929519    4    2   15    1
 0.003163310314609108    4    2   15    3
 -0.009448786449277992    4    2   15    7
 -0.02756805940722019    4    2   15   12
 0.001775426730686509    4    2   15   15
 -0.003321350915321881    4    2   16    5
 0.009293203775022836    4    2   16    8
 -0.01894998369775141    4    2   16   11
 0.005157407304148077    4    2   16   16
 8.86083666451813e-05    4    2   17    2
 -0.001036631072452598    4    2   17    4
 -0.0001595808553215537    4    2   17    9
 0.03358454495151651    4    2   17   13
 -0.01169513704511309    4    2   17   17
 0.003285878811303112    4    2   18    1
 -0.003640356573505664    4    2   18    3
 0.003479941967559856    4    2   18    7
 -0.007262133938710383    4    2   18   12
 0.02330133949655643    4    2   18   15
 -0.03710025446884242    4    2   18   18
 0.0006423565603872658    4    2   19    6
 0.005016009502157823    4    2   19   10
 -0.03361738499953407    4    2   19   14
 0.0007866922145580407    4    2   19   19
 0.003314310318052364    4    2   20    5
 -0.003420667402945411    4    2   20    8
 -0.0005391596532253858    4    2   20   11
 0.03255414283818921    4    2   20   16
 -0.001436251630552545    4    2   20   20
 -0.0002042518249999426    4    2   21    6
 -0.003431449968378443    4    2   21   10
 -0.001561051682800091    4    2   21   14
 0.03276315579057819    4    2   21   19
 -0.01265827453771085    4    2   21   21
 0.00330679980159485    4    2   22    5
 -0.001982050455297263    4    2   22    8
 -0.005134652086431153    4    2   22   11
 -0.0040561055469757    4    2   22   16
 -0.02472014854593152    4    2   22   20
 -0.03960902586101317    4    2   22   22
 0.03959762667165901    4    3    2    1
 0.03824943266076573    4    3    3    2
 -0.002811371316765827    4    3    4    1
 0.05126323050627094    4    3    4    3
 0.03759781085472705    4    3    6    5
 0.009257127136887068    4    3    7    2
 0.04343839089379293    4    3    7    4
 0.03857677922970335    4    3    8    6
 0.01221513262150275    4    3    9    1
 -0.00103870884855031    4    3    9    3
 0.04570595791530125    4    3    9    7
 0.0004366553803384366    4    3   10    5
 0.04594319762155401    4    3   10    8
 -0.006179702991641329    4    3   11    6
 -0.03894658153192131    4    3   11   10
 0.002276298811626905    4    3   12    2
 0.0007453070671094283    4    3   12    4
 0.02571027390627253    4    3   12    9
 0.004938268007922055    4    3   13    1
 -0.005133931946431155    4    3   13    3
 -0.009583930528117606    4    3   13    7
 -0.04070855581740378    4    3   13   12
 -0.009717076566005459    4    3   14    5
 0.0009208743785896143    4    3   14    8
 0.02470974151568557    4    3   14   11
 0.002890834225480224    4    3   15    2
 -0.00953073398551337    4    3   15    4
 0.001294864247314963    4    3   15    9
 0.04726923094119006    4    3   15   13
 0.004729338886852368    4    3   16    6
 0.009194449597740987    4    3   16   10
 -0.04797266383267706    4    3   16   14
 -0.002977974360427983    4    3   17    1
 0.001195000356140572    4    3   17    3
 -0.004271152844338095    4    3   17    7
 -0.005487134522535631    4    3   17   12
 0.03924210724924562    4    3   17   15
 -0.00380485793471902    4    3   18    2
 0.005394256116241252    4    3   18    4
 -0.009183218846449907    4    3   18    9
 -0.0004932928894869149    4    3   18   13
 0.03726836134016627    4    3   18   17
 -0.005498482849729782    4    3   19    5
 0.009308837328003453    4    3   19    8
 -5.266933670907904e-05    4    3   19   11
 0.04561676000329429    4    3   19   16
 -0.001619409156886446    4    3   20    6
 0.004670443769941162    4    3   20   10
 0.0004115654581162007    4    3   20   14
 0.05198911924632359    4    3   20   19
 0.003621967166007622    4    3   21    5
 -0.003274624390270053    4    3   21    8
 -0.002313708543711207    4    3   21   11
 0.008997773187735694    4    3   21   16
 0.03752350824882515    4    3   21   20
 -0.002828523123362072    4    3   22    6
 0.004884258631273852    4    3   22   10
 0.01231547051578452    4    3   22   14
 0.00428471355120155    4    3   22   19
 -0.03911854022410946    4    3   22   21
 0.1572044678675549    4    4    1    1
 0.1513689905683762    4    4    2    2
 -0.005746951254477752    4    4    3    1
 0.156058532190409    4    4    3    3
 -0.0009141937277977928    4    4    4    2
 0.1608538925918575    4    4    4    4
 0.1525303170493206    4    4    5    5
 0.1487730791399119    4    4    6    6
 0.005323459605630092    4    4    7    1
 0.003305117125823807    4    4    7    3
 0.1543920300219743    4    4    7    7
 -0.003464003703174557    4    4    8    5
 0.1504034332665255    4    4    8    8
 0.008816187547607549    4    4    9    2
 -0.004509165124619221    4    4    9    4
 0.1610220765272095    4    4    9    9
 -0.001456245199514932    4    4   10    6
 0.1529454094063329    4    4   10   10
 -0.001103067707728513    4    4   11    5
 -0.001331636959335789    4    4   11    8
 0.149457728584682    4    4   11   11
 0.004622941635573329    4    4   12    1
 0.002070637907052086    4    4   12    3
 0.003288792173536714    4    4   12    7
 0.1513349220173659    4    4   12   12
 -0.00132963695372882    4    4   13    2
 -0.008836028545518938    4    4   13    4
 0.002914257576733766    4    4   13    9
 0.1552732402414949    4    4   13   13
 -0.007094180245246903    4    4   14    6
 0.002563927344836377    4    4   14   10
 0.1611293796226274    4    4   14   14
 0.004178679166323216    4    4   15    1
 -0.007789827722629782    4    4   15    3
 -0.002551214014097754    4    4   15    7
 -0.001034507476052886    4    4   15   12
 0.1532071869648304    4    4   15   15
 0.005662031313336357    4    4   16    5
 0.002940258741699959    4    4   16    8
 -0.002777111087510475    4    4   16   11
 0.1560283459632371    4    4   16   16
 -0.002999829055425082    4    4   17    2
 -0.0005967834555421826    4    4   17    4
 -0.006652087352056035    4    4   17    9
 -0.001519999323576427    4    4   17   13
 0.1517433788923292    4    4   17   17
 -0.007960517766323765    4    4   18    1
 0.00472864760247226    4    4   18    3
 -0.00518546677718374    4    4   18    7
 -0.001282375515869102    4    4   18   12
 -0.003579488726445525    4    4   18   15
 0.1557464230955407    4    4   18   18
 0.0008706102499578622    4    4   19    6
 0.008308136312895379    4    4   19   10
 0.003846095813172969    4    4   19   14
 0.1627809974155716    4    4   19   19
 -0.004595733278201965    4    4   20    5
 0.007075236802096592    4    4   20    8
 -0.002176360140146104    4    4   20   11
 0.003636859173528716    4    4   20   16
 0.1579115543380938    4    4   20   20
 0.002408390445390822    4    4   21    6
 0.0009451660716119185    4    4   21   10
 -0.008975839637584014    4    4   21   14
 -0.001219886961603268    4    4   21   19
 0.1536638677848536    4    4   21   21
 -0.007566448103559312    4    4   22    5
 0.00442348712621436    4    4   22    8
 0.004057710847076589    4    4   22   11
 -0.005414675846592713    4    4   22   16
 0.006299441230240817    4    4   22   20
 0.1606646122308366    4    4   22   22
 0.04022278347425352    5    1    5    1
 -0.0116493073171653    5    1    5    3
 0.02786757275641184    5    1    6    2
 -0.01170784099584719    5    1    6    4
 0.0003338309314132251    5    1    7    5
 -0.01182962203797462    5    1    8    1
 0.02676955074114182    5    1    8    3
 -0.01119857799366434    5    1    8    7
 0.0004177530241303667    5    1    9    6
 -0.01169080544219003    5    1   10    2
 0.02536921548432038    5    1   10    4
 -0.007295892288381618    5    1   10    9
 -0.0004571678006008298    5    1   11    1
 0.01146474139815479    5    1   11    3
 -0.02708435891603833    5    1   11    7
 -9.048255811470962e-05    5    1   12    5
 0.006384570799115961    5    1   12    8
 0.03269405597467785    5    1   12   11
 -0.005040231695962375    5    1   13    6
 0.01638308912204757    5    1   13   10
 -0.0009055356625890771    5    1   14    2
 0.01206008517156499    5    1   14    4
 -0.02993420452465787    5    1   14    9
 -0.006312082725624505    5    1   14   13
 -0.00435872461137086    5    1   15    5
 0.01394870121494354    5    1   15    8
 0.007647409540764807    5    1   15   11
 0.000369600037111375    5    1   16    1
 -0.004054700359544494    5    1   16    3
 0.001886601255480613    5    1   16    7
 0.02763473744737644    5    1   16   12
 0.01069009068191569    5    1   16   15
 0.01340697496307171    5    1   17    6
 -0.006395664899365539    5    1   17   10
 0.00049524866837177    5    1   17   14
 0.01805830736686728    5    1   18    5
 -0.005742966356676728    5    1   18    8
 -0.0001604371131524825    5    1   18   11
 -0.0005310315613279413    5    1   18   16
 -0.002394731720649558    5    1   19    2
 0.004585802350553661    5    1   19    4
 -0.01291324117984955    5    1   19    9