 &FCI NORB=  22,NELEC=22,MS2=0,
  ORBSYM=1,1,1,1,1,1,1,1,1,1,1,1,1,1,1,1,1,1,1,1,1,1,
  ISYM=1,
 &END
 0.6269891042169317    1    1    1    1
 -0.0009287635083356999    1    1    2    1
 0.1781712995483572    1    1    2    2
 0.000513510559256864    1    1    3    1
 -0.0001934328580504584    1    1    3    2
 0.1019553358706415    1    1    3    3
 0.0002299749314365422    1    1    4    1
 9.996448780415733e-07    1    1    4    2
 3.635283264785424e-06    1    1    4    3
 0.07017103424932915    1    1    4    4
 -0.004765187002907388    1    1    5    1
 -0.000254426064251975    1    1    5    2
 -0.0001645262235405173    1    1    5    3
 -3.072931985330833e-05    1    1    5    4
 0.3231662072009171    1    1    5    5
 -0.001514589693492642    1    1    6    1
 -0.0005228295515658849    1    1    6    2
 0.0001165491221539922    1    1    6    3
 -2.092379580093956e-05    1    1    6    4
 0.0004244373889405958    1    1    6    5
 0.201047867266861    1    1    6    6
 0.0001652352951843268    1    1    7    1
 -1.151565058261419e-06    1    1    7    2
 1.234260368353584e-06    1    1    7    3
 -2.721365351564567e-05    1    1    7    4
 3.672818892089036e-05    1    1    7    5
 -2.648210808195228e-05    1    1    7    6
 0.07152968171223786    1    1    7    7
 -0.0009632473076094757    1    1    8    1
 0.0006490614420123317    1    1    8    2
 0.000376433256577878    1    1    8    3
 -6.731612476987007e-06    1    1    8    4
 5.374349243694999e-05    1    1    8    5
 -0.000184467181427887    1    1    8    6
 -4.329335370675023e-06    1    1    8    7
 0.1368075682738212    1    1    8    8
 0.001773154301773887    1    1    9    1
 -4.132407371253382e-05    1    1    9    2
 2.390168253860744e-05    1    1    9    3
 -2.966166034624762e-05    1    1    9    4
 -0.002917982239918207    1    1    9    5
 0.0001761038965374905    1    1    9    6
 -1.179278254684991e-05    1    1    9    7
 -5.788259919612874e-05    1    1    9    8
 0.2048030006082686    1    1    9    9
 7.004157004984277e-05    1    1   10    1
 -0.001548798046704431    1    1   10    2
 0.0002414100112691813    1    1   10    3
 -3.552430215878779e-06    1    1   10    4
 9.12255339865882e-05    1    1   10    5
 0.0005206850763607632    1    1   10    6
 -4.986189170772486e-06    1    1   10    7
 -0.0002351261602193712    1    1   10    8
 2.912648111838378e-05    1    1   10    9
 0.1208388190219838    1    1   10   10
 -0.001853723066983277    1    1   11    1
 0.0002166568704308375    1    1   11    2
 -4.566684508818442e-05    1    1   11    3
 1.394361202343539e-05    1    1   11    4
 -0.0006389697201150577    1    1   11    5
 -0.000937913894585643    1    1   11    6
 2.473502560173466e-06    1    1   11    7
 0.0001102771746114275    1    1   11    8
 -0.001278444523456526    1    1   11    9
 -4.082321254626424e-05    1    1   11   10
 0.2017413537898058    1    1   11   11
 6.114809060537343e-05    1    1   12    1
 -1.364163671757744e-05    1    1   12    2
 4.541531964747264e-06    1    1   12    3
 -4.625858384827689e-05    1    1   12    4
 -4.853126119080694e-06    1    1   12    5
 4.37985312151982e-05    1    1   12    6
 1.88297211492759e-05    1    1   12    7
 -3.109052255826064e-05    1    1   12    8
 0.0004793836847290038    1    1   12    9
 -3.888345109599867e-07    1    1   12   10
 -0.0005314683272658536    1    1   12   11
 0.1214809739405074    1    1   12   12
 -0.0001753405153775394    1    1   13    1
 5.855831169313227e-06    1    1   13    2
 -1.672421663688042e-06    1    1   13    3
 0.0001245100616534433    1    1   13    4
 7.127344561386339e-05    1    1   13    5
 1.279764842985326e-05    1    1   13    6
 0.0001610956500007175    1    1   13    7
 1.308497621650943e-05    1    1   13    8
 -5.365053734473622e-05    1    1   13    9
 2.498560715662512e-06    1    1   13   10
 -1.254091904291677e-05    1    1   13   11
 -0.0001326495496725962    1    1   13   12
 0.08044486833646367    1    1   13   13
 -0.001022372348118727    1    1   14    1
 9.147704945497073e-06    1    1   14    2
 -1.121948053327916e-05    1    1   14    3
 1.603318146466613e-05    1    1   14    4
 0.001709086373691083    1    1   14    5
 0.0002559109723606133    1    1   14    6
 3.101945950974817e-05    1    1   14    7
 -3.558655240617631e-05    1    1   14    8
 0.0008129523709572794    1    1   14    9
 2.138441187070561e-05    1    1   14   10
 -0.0006396373724554428    1    1   14   11
 0.001595656749611328    1    1   14   12
 -0.0001453790360842822    1    1   14   13
 0.1781407335745473    1    1   14   14
 0.0001379369417246913    1    1   15    1
 1.143280046677379e-05    1    1   15    2
 4.423142161570635e-06    1    1   15    3
 -0.0001525507769351658    1    1   15    4
 0.000113215210691925    1    1   15    5
 -2.061095181462739e-05    1    1   15    6
 -0.0001950150821777409    1    1   15    7
 -2.292082266925982e-06    1    1   15    8
 -0.0002225549180339241    1    1   15    9
 -1.040996929567696e-05    1    1   15   10
 -3.191420950802761e-06    1    1   15   11
 -3.869380692531167e-05    1    1   15   12
 7.586558072895423e-05    1    1   15   13
 -1.498032913708889e-05    1    1   15   14
 0.08465547031527182    1    1   15   15
 1.719814495746459e-05    1    1   16    1
 1.304499364132727e-05    1    1   16    2
 -0.0001139010140066743    1    1   16    3
 -1.987812438844805e-07    1    1   16    4
 -0.0001080986791334839    1    1   16    5
 -7.926005922495133e-06    1    1   16    6
 1.307547132103856e-06    1    1   16    7
 0.0006323401508428446    1    1   16    8
 3.161983114963987e-05    1    1   16    9
 0.0003833292902073786    1    1   16   10
 -6.474691104071342e-05    1    1   16   11
 1.681227531820934e-05    1    1   16   12
 -4.054017186709513e-06    1    1   16   13
 -8.932767696379356e-07    1    1   16   14
 -1.294199911358372e-06    1    1   16   15
 0.1062898166139545    1    1   16   16
 -0.0009137937491326068    1    1   17    1
 -4.693547081584224e-05    1    1   17    2
 -2.062862756736247e-05    1    1   17    3
 -3.491659042339453e-05    1    1   17    4
 0.0001036413895133207    1    1   17    5
 0.0001040046114223562    1    1   17    6
 6.801651055584795e-05    1    1   17    7
 1.4421949042063e-07    1    1   17    8
 0.001805436342603174    1    1   17    9
 2.753205763517555e-05    1    1   17   10
 -0.000164734496553057    1    1   17   11
 0.0002004236970937548    1    1   17   12
 -1.287358504858802e-05    1    1   17   13
 0.0006509935777337526    1    1   17   14
 -4.639465855796636e-05    1    1   17   15
 2.359686499487176e-07    1    1   17   16
 0.1377040677623074    1    1   17   17
 0.004152815266439805    1    1   18    1
 -0.001775225981210643    1    1   18    2
 0.000113311023635776    1    1   18    3
 6.671757033772521e-05    1    1   18    4
 0.0005013489990145891    1    1   18    5
 0.0007247927062278835    1    1   18    6
 5.256699857983739e-05    1    1   18    7
 -0.0001105522283152026    1    1   18    8
 0.0004327233777852741    1    1   18    9
 4.899667427068626e-05    1    1   18   10
 -0.0004641353450309588    1    1   18   11
 0.000101074965857293    1    1   18   12
 -3.563048205737886e-05    1    1   18   13
 0.0001759919194650035    1    1   18   14
 4.780100799411626e-05    1    1   18   15
 -0.00044768605720036    1    1   18   16
 -4.601908105100457e-05    1    1   18   17
 0.3204338704318415    1    1   18   18
 0.004293794068039566    1    1   19    1
 -0.001481486012266771    1    1   19    2
 6.967735803050358e-05    1    1   19    3
 6.768300079272953e-05    1    1   19    4
 0.0004021464610277057    1    1   19    5
 -0.002197717187205159    1    1   19    6
 6.681418359142849e-05    1    1   19    7
 -0.0001688510102024101    1    1   19    8
 -0.0002347131378376982    1    1   19    9
 -0.0001084599593028549    1    1   19   10
 -0.002412228349219491    1    1   19   11
 9.858504687951965e-05    1    1   19   12
 -5.136089640751671e-05    1    1   19   13
 -0.00157196332601626    1    1   19   14
 5.423819986644199e-05    1    1   19   15
 0.0001199585761393811    1    1   19   16
 -0.0002086175161415322    1    1   19   17
 -0.0006361359976443893    1    1   19   18
 0.3172451924219785    1    1   19   19
 -0.001427571743252958    1    1   20    1
 -0.0007408589607479363    1    1   20    2
 -0.0001244718046462753    1    1   20    3
 -1.044644831704465e-05    1    1   20    4
 0.0003297528089802591    1    1   20    5
 0.001291051414401917    1    1   20    6
 -6.773561494694466e-06    1    1   20    7
 -0.001779730314650234    1    1   20    8
 -2.118804967096334e-05    1    1   20    9
 0.000488528807118524    1    1   20   10
 -0.000211502194390057    1    1   20   11
 4.81912977183288e-05    1    1   20   12
 -8.946882014231392e-06    1    1   20   13
 6.343825305829619e-05    1    1   20   14
 -1.94331742190394e-05    1    1   20   15
 3.105487261298033e-05    1    1   20   16
 5.267427278497238e-05    1    1   20   17
 -0.003063562184021769    1    1   20   18
 0.0003421775740001692    1    1   20   19
 0.2048936919164504    1    1   20   20
 3.778365871938541e-05    1    1   21    1
 1.186870914135634e-06    1    1   21    2
 -3.10786654198893e-06    1    1   21    3
 -1.99204603941122e-05    1    1   21    4
 0.0004955994951865425    1    1   21    5
 -6.196234661977876e-05    1    1   21    6
 1.311136658467028e-05    1    1   21    7
 -8.492270609676011e-07    1    1   21    8
 1.309368587686099e-08    1    1   21    9
 -1.312138687489213e-05    1    1   21   10
 -5.839985728448176e-06    1    1   21   11
 -0.0004063545587789587    1    1   21   12
 0.0001883848273818887    1    1   21   13
 -3.778138199291221e-05    1    1   21   14
 0.0003429841284774771    1    1   21   15
 -4.089665963798641e-06    1    1   21   16
 0.0005973257198003835    1    1   21   17
 0.0001098375631330109    1    1   21   18
 0.000131911519717154    1    1   21   19
 -2.351800074854715e-05    1    1   21   20
 0.1067312190638897    1    1   21   21
 -0.0005611583567885024    1    1   22    1
 5.927221597713079e-06    1    1   22    2
 -3.365461572846255e-06    1    1   22    3
 3.817782719738039e-05    1    1   22    4
 0.0001003979805325451    1    1   22    5
 4.282476790300556e-05    1    1   22    6
 -4.263969688494956e-06    1    1   22    7
 1.982132291035226e-05    1    1   22    8
 -0.0001754564103684762    1    1   22    9
 2.621431364686762e-06    1    1   22   10
 -0.0001164791510646886    1    1   22   11
 0.0001898487901349881    1    1   22   12
 0.0003778025859572081    1    1   22   13
 0.0002281353285482318    1    1   22   14
 0.0002251801217115809    1    1   22   15
 2.791002588752327e-06    1    1   22   16
 -0.0004022483279334894    1    1   22   17
 -0.0001605077592410833    1    1   22   18
 -7.560457351128796e-05    1    1   22   19
 1.3324726533974e-05    1    1   22   20
 0.0001308492384024997    1    1   22   21
 0.1023830571879672    1    1   22   22
 -0.0009287635083356986    2    1    1    1
 1.894699528179535e-05    2    1    2    1
 -0.0008878968074669074    2    1    2    2
 -2.077548210168495e-06    2    1    3    1
 4.683844145289232e-06    2    1    3    2
 -0.0002340359476161076    2    1    3    3
 -5.975775284359041e-07    2    1    4    1
 -3.540794063476815e-07    2    1    4    2
 -2.37532316939013e-08    2    1    4    3
 -4.490606805875545e-06    2    1    4    4
 -1.904899711113511e-05    2    1    5    1
 -1.855673971360095e-06    2    1    5    2
 4.826005046566959e-07    2    1    5    3
 6.248000348989041e-08    2    1    5    4
 -0.0004298439138916704    2    1    5    5
 -5.281646202358152e-07    2    1    6    1
 -9.340066062022354e-05    2    1    6    2
 1.847505306885836e-06    2    1    6    3
 -7.017310191226941e-08    2    1    6    4
 1.732016552714337e-06    2    1    6    5
 0.0004245188514116454    2    1    6    6
 -3.292415345947223e-07    2    1    7    1
 -4.414576373992012e-07    2    1    7    2
 -1.087646244883606e-08    2    1    7    3
 3.612664271786775e-08    2    1    7    4
 -1.045449468650713e-07    2    1    7    5
 -9.057580001208736e-08    2    1    7    6
 -1.06554341337691e-05    2    1    7    7
 7.627342430806722e-06    2    1    8    1
 1.470441236764647e-05    2    1    8    2
 -1.974570913880599e-06    2    1    8    3
 -1.364864578191038e-08    2    1    8    4
 -1.016330087029175e-06    2    1    8    5
 -7.640387487104732e-07    2    1    8    6
 -1.994046104360367e-08    2    1    8    7
 2.486608046904718e-05    2    1    8    8
 -3.317322694559444e-06    2    1    9    1
 1.894434572778863e-06    2    1    9    2
 3.476161115082136e-08    2    1    9    3
 5.811252979343994e-08    2    1    9    4
 8.396179877665249e-06    2    1    9    5
 1.288598454826956e-07    2    1    9    6
 9.297533418009621e-09    2    1    9    7
 1.040884841568891e-07    2    1    9    8
 -0.0001754564261036013    2    1    9    9
 -2.963322592165421e-06    2    1   10    1
 -1.949580464500395e-05    2    1   10    2
 -8.198072521850823e-06    2    1   10    3
 3.882135859211701e-08    2    1   10    4
 4.885337167177106e-07    2    1   10    5
 6.573707966056576e-06    2    1   10    6
 4.780088357415846e-08    2    1   10    7
 7.835249709283049e-07    2    1   10    8
 -2.529044574646884e-07    2    1   10    9
 -0.0004504064568152569    2    1   10   10
 1.710030651387631e-05    2    1   11    1
 7.771114551880665e-06    2    1   11    2
 -1.151374737695777e-07    2    1   11    3
 -1.275451219619196e-08    2    1   11    4
 -3.496233832618239e-08    2    1   11    5
 -4.312199034805956e-06    2    1   11    6
 -1.004747894456121e-07    2    1   11    7
 4.946884154324013e-07    2    1   11    8
 1.01063126167273e-06    2    1   11    9
 -1.013434170245427e-06    2    1   11   10
 0.0001431663799441204    2    1   11   11
 -6.64170472737668e-07    2    1   12    1
 -8.492960984000026e-07    2    1   12    2
 1.466342360224447e-08    2    1   12    3
 -3.384410159717485e-09    2    1   12    4
 2.856277254927145e-07    2    1   12    5
 1.243247811227098e-07    2    1   12    6
 1.950113925964811e-08    2    1   12    7
 -6.085085003962235e-08    2    1   12    8
 -2.216820561981426e-08    2    1   12    9
 1.825523027913078e-07    2    1   12   10
 1.574087906415861e-06    2    1   12   11
 8.567057291734605e-07    2    1   12   12
 6.34482777486911e-07    2    1   13    1
 4.19856056638354e-07    2    1   13    2
 -8.913817823369935e-09    2    1   13    3
 9.987173819803774e-08    2    1   13    4
 -2.006070053196897e-07    2    1   13    5
 3.406452241050472e-08    2    1   13    6
 -8.257549933162076e-08    2    1   13    7
 2.289558526307827e-08    2    1   13    8
 1.323822413039052e-07    2    1   13    9
 -7.988200739127623e-08    2    1   13   10
 -1.156689062821554e-07    2    1   13   11
 2.974572458848727e-07    2    1   13   12
 -2.057585007503032e-06    2    1   13   13
 2.250873318233824e-06    2    1   14    1
 1.370336474108377e-07    2    1   14    2
 -3.893560622190984e-08    2    1   14    3
 -3.629327973753082e-08    2    1   14    4
 -2.575832645669026e-06    2    1   14    5
 3.341777697848477e-07    2    1   14    6
 -5.74358739011913e-08    2    1   14    7
 -3.328981876015135e-08    2    1   14    8
 -1.326379527800471e-06    2    1   14    9
 3.093167828002179e-07    2    1   14   10
 8.562365391873861e-06    2    1   14   11
 -2.336740751532359e-06    2    1   14   12
 4.719985548399955e-08    2    1   14   13
 -3.77813920539788e-05    2    1   14   14
 -1.831728705344327e-07    2    1   15    1
 -2.985418855973855e-07    2    1   15    2
 -2.496080070982523e-08    2    1   15    3
 4.895392579613456e-08    2    1   15    4
 -3.326697707862522e-07    2    1   15    5
 -1.290072274678587e-07    2    1   15    6
 2.680338703134748e-07    2    1   15    7
 -1.541842704980108e-10    2    1   15    8
 4.285975026695104e-07    2    1   15    9
 1.585534411172877e-08    2    1   15   10
 -1.240355782331053e-07    2    1   15   11
 9.005764804346555e-08    2    1   15   12
 -4.732134897061579e-08    2    1   15   13
 -6.06325282515198e-08    2    1   15   14
 -2.168260512815152e-05    2    1   15   15
 -3.079008360807852e-09    2    1   16    1
 8.410639109210464e-07    2    1   16    2
 1.98353951442897e-06    2    1   16    3
 -1.947055220890732e-08    2    1   16    4
 3.350868192022539e-07    2    1   16    5
 -8.97155936148996e-07    2    1   16    6
 -1.418745194578368e-08    2    1   16    7
 6.612350368583252e-06    2    1   16    8
 -3.817167552659111e-09    2    1   16    9
 -4.021311236217724e-06    2    1   16   10
 -3.03984614212077e-08    2    1   16   11
 -3.959868224635724e-08    2    1   16   12
 1.298004134361407e-08    2    1   16   13
 -1.308160935627094e-07    2    1   16   14
 -1.076261441987157e-08    2    1   16   15
 -0.000106698407818972    2    1   16   16
 1.223409566464817e-06    2    1   17    1
 8.254639522924953e-07    2    1   17    2
 8.357003600690898e-08    2    1   17    3
 6.534727581302082e-08    2    1   17    4
 6.513889099650328e-07    2    1   17    5
 1.608603573446985e-07    2    1   17    6
 -1.137358641935737e-07    2    1   17    7
 -1.388222157063091e-08    2    1   17    8
 -2.80016345654159e-06    2    1   17    9
 -3.109922863618272e-08    2    1   17   10
 5.826188043587728e-07    2    1   17   11
 -2.392754469105116e-07    2    1   17   12
 -4.256365428349479e-08    2    1   17   13
 -9.808234042458852e-07    2    1   17   14
 -1.106139679834938e-07    2    1   17   15
 3.519781957376129e-08    2    1   17   16
 -8.166345018330435e-05    2    1   17   17
 -6.837020161493431e-05    2    1   18    1
 4.99668801527465e-07    2    1   18    2
 8.082197630319006e-08    2    1   18    3
 -2.06951867944353e-07    2    1   18    4
 8.142952382072302e-06    2    1   18    5
 5.082504507534502e-06    2    1   18    6
 -1.410259171033035e-07    2    1   18    7
 -5.28818554274281e-06    2    1   18    8
 -1.946567191234e-06    2    1   18    9
 1.293448450613199e-06    2    1   18   10
 -8.116445962474571e-07    2    1   18   11
 -1.911562999189177e-07    2    1   18   12
 9.75857236032435e-08    2    1   18   13
 -3.437797387652051e-07    2    1   18   14
 -1.951553288905604e-07    2    1   18   15
 1.010965437879531e-06    2    1   18   16
 4.104255595872007e-07    2    1   18   17
 0.0001478346880331625    2    1   18   18
 -5.970332118118664e-05    2    1   19    1
 2.026898484307454e-06    2    1   19    2
 -3.932659644639133e-07    2    1   19    3
 -9.344579989443318e-09    2    1   19    4
 6.341571916458586e-06    2    1   19    5
 8.404033138601893e-05    2    1   19    6
 -4.474356459915136e-08    2    1   19    7
 -1.611535328435526e-06    2    1   19    8
 2.801858556660332e-06    2    1   19    9
 3.277474230988987e-06    2    1   19   10
 -1.229298547588893e-05    2    1   19   11
 1.766256713311682e-06    2    1   19   12
 -8.56609604181132e-08    2    1   19   13
 5.171049483752825e-06    2    1   19   14
 -2.181189015703814e-07    2    1   19   15
 -4.326320140845798e-07    2    1   19   16
 1.32330376416099e-06    2    1   19   17
 1.231079642561121e-05    2    1   19   18
 0.000342177564347992    2    1   19   19
 -1.960695992997201e-06    2    1   20    1
 -5.303232844238895e-05    2    1   20    2
 -2.855152687251934e-06    2    1   20    3
 -1.080089362337002e-07    2    1   20    4
 3.52140364941728e-06    2    1   20    5
 1.068295947269548e-05    2    1   20    6
 -8.156245294245336e-08    2    1   20    7
 -9.668486480008261e-06    2    1   20    8
 3.336156562937178e-07    2    1   20    9
 7.253671884763489e-06    2    1   20   10
 -1.774999966016035e-06    2    1   20   11
 -8.140142030927172e-08    2    1   20   12
 4.186423382618133e-08    2    1   20   13
 -3.969514601233217e-07    2    1   20   14
 -1.732074135478931e-07    2    1   20   15
 5.488141918669042e-06    2    1   20   16
 4.422081565051547e-07    2    1   20   17
 9.680035003739289e-05    2    1   20   18
 8.266356800413503e-06    2    1   20   19
 0.0001397921375343822    2    1   20   20
 8.974792436759012e-09    2    1   21    1
 -8.86010143295825e-07    2    1   21    2
 -1.998373905059301e-08    2    1   21    3
 7.419805099214831e-08    2    1   21    4
 -1.199714644060327e-06    2    1   21    5
 -3.618214172358314e-07    2    1   21    6
 -1.12006386934116e-07    2    1   21    7
 -3.346982818588161e-08    2    1   21    8
 3.337496578201477e-07    2    1   21    9
 1.044196525769842e-07    2    1   21   10
 -1.808577034839384e-07    2    1   21   11
 3.268751161841468e-07    2    1   21   12
 -2.494996804357877e-08    2    1   21   13
 -2.08364983443879e-07    2    1   21   14
 -2.929911236163741e-07    2    1   21   15
 -1.880705810731553e-08    2    1   21   16
 -1.412756526627196e-06    2    1   21   17
 -2.179130533347121e-07    2    1   21   18
 -2.103595158898553e-07    2    1   21   19
 -2.368435370833459e-07    2    1   21   20
 -3.534279840506216e-05    2    1   21   21
 1.71766634228944e-06    2    1   22    1
 8.196527396395572e-07    2    1   22    2
 2.859212011781484e-08    2    1   22    3
 -1.291360969583526e-07    2    1   22    4
 -2.605864336597724e-07    2    1   22    5
 1.902897442218277e-07    2    1   22    6
 4.859834479891911e-08    2    1   22    7
 3.345958434496525e-08    2    1   22    8
 4.971112126137355e-07    2    1   22    9
 -1.3714783794752e-07    2    1   22   10
 -4.770401908962432e-07    2    1   22   11
 7.353614249001502e-07    2    1   22   12
 -4.41256796024682e-07    2    1   22   13
 -8.003524825678835e-07    2    1   22   14
 -2.059545170142402e-07    2    1   22   15
 3.923219387232347e-08    2    1   22   16
 3.209064510475591e-07    2    1   22   17
 3.683571544343486e-07    2    1   22   18
 1.723166878354298e-07    2    1   22   19
 1.867264508090588e-07    2    1   22   20
 -1.920051293801718e-07    2    1   22   21
 -1.3104883403069e-05    2    1   22   22
 0.1781712995483571    2    2    1    1
 -0.0008878968074669082    2    2    2    1
 0.6290164437435685    2    2    2    2
 9.492775792323637e-05    2    2    3    1
 -0.001105057915598525    2    2    3    2
 0.2034695082003177    2    2    3    3
 1.958634200092985e-05    2    2    4    1
 9.985658417334247e-05    2    2    4    2
 4.449234454382295e-06    2    2    4    3
 0.05384536903166934    2    2    4    4
 -0.001629563916604357    2    2    5    1
 -0.0002283849443491922    2    2    5    2
 -6.553365790076673e-05    2    2    5    3
 -7.394620852880897e-06    2    2    5    4
 0.1219252593695973    2    2    5    5
 -0.001567210214188256    2    2    6    1
 0.0062232298398633    2    2    6    2
 -0.0001932042746674626    2    2    6    3
 -6.395477959319222e-06    2    2    6    4
 -6.343850753854338e-05    2    2    6    5
 0.3264148754035413    2    2    6    6
 2.090334966393059e-05    2    2    7    1
 0.0001145506654098998    2    2    7    2
 1.968901729354275e-07    2    2    7    3
 -7.601267070809771e-06    2    2    7    4
 1.283567093111735e-06    2    2    7    5
 8.96043299145224e-06    2    2    7    6
 0.05325891474097156    2    2    7    7
 0.0002823836437263858    2    2    8    1
 -0.0009518101613789004    2    2    8    2
 0.001264206261462379    2    2    8    3
 -7.483447511546015e-06    2    2    8    4
 -4.6781687426913e-05    2    2    8    5
 -0.0003512947362084485    2    2    8    6
 -7.051960819607747e-06    2    2    8    7
 0.199899663884257    2    2    8    8
 0.0002543299276682662    2    2    9    1
 -0.0005841321591081818    2    2    9    2
 -1.249997696299937e-05    2    2    9    3
 -8.601765360365743e-06    2    2    9    4
 -0.0001696473854721673    2    2    9    5
 -0.0001273385726654011    2    2    9    6
 -4.684641562071019e-06    2    2    9    7
 2.361550796996269e-05    2    2    9    8
 0.1023830571879961    2    2    9    9
 -0.0001273274267274589    2    2   10    1
 -0.003902633229503796    2    2   10    2
 0.003304878039567064    2    2   10    3
 -2.095555028648737e-05    2    2   10    4
 0.000127399812455747    2    2   10    5
 0.0004708062321373048    2    2   10    6
 -2.310287289054146e-05    2    2   10    7
 -0.0008234214977120051    2    2   10    8
 0.0001286266309160952    2    2   10    9
 0.3165491219621136    2    2   10   10
 0.0006338923022367657    2    2   11    1
 -0.0008583095379616828    2    2   11    2
 3.198339216617957e-05    2    2   11    3
 9.833581109712841e-08    2    2   11    4
 -0.0001677574080678408    2    2   11    5
 -0.0001630423362883056    2    2   11    6
 -1.456922575029876e-05    2    2   11    7
 9.781912852722548e-05    2    2   11    8
 -0.0004089829439288379    2    2   11    9
 2.47852680963514e-05    2    2   11   10
 0.1383570634535699    2    2   11   11
 -1.263684503024198e-05    2    2   12    1
 0.0001143694050595694    2    2   12    2
 -1.721450964447568e-05    2    2   12    3
 -2.172176614887883e-05    2    2   12    4
 2.797991943315954e-05    2    2   12    5
 -0.0001221903219920574    2    2   12    6
 1.310373067392143e-05    2    2   12    7
 -2.530272114593716e-05    2    2   12    8
 0.000231791721805314    2    2   12    9
 -4.495802535794926e-05    2    2   12   10
 -4.227888248426126e-05    2    2   12   11
 0.0850234042239361    2    2   12   12
 -1.147113991353822e-06    2    2   13    1
 -7.547195938384304e-05    2    2   13    2
 8.309471139541824e-06    2    2   13    3
 8.481465806783612e-05    2    2   13    4
 6.911561752008988e-06    2    2   13    5
 4.000798382665149e-06    2    2   13    6
 8.17925811525577e-05    2    2   13    7
 9.989717136768647e-06    2    2   13    8
 -5.961367101052982e-06    2    2   13    9
 2.488476022784741e-05    2    2   13   10
 -1.113366141864366e-05    2    2   13   11
 -1.627441176110589e-05    2    2   13   12
 0.06107051265039373    2    2   13   13
 -7.399261059194168e-05    2    2   14    1
 -3.555881431747792e-05    2    2   14    2
 -1.974977596863831e-05    2    2   14    3
 2.80953036343491e-06    2    2   14    4
 0.0004129990498445081    2    2   14    5
 -0.0005241159082950053    2    2   14    6
 6.141643838940807e-06    2    2   14    7
 -4.781732299160982e-05    2    2   14    8
 0.0001586132597192396    2    2   14    9
 -6.85644400928513e-05    2    2   14   10
 0.0005887393668901381    2    2   14   11
 0.0003454305906856523    2    2   14   12
 -5.446013617019599e-05    2    2   14   13
 0.106731219063755    2    2   14   14
 2.103541524849323e-05    2    2   15    1
 0.0001045811854039002    2    2   15    2
 7.453433956866748e-06    2    2   15    3
 -8.637231364827832e-05    2    2   15    4
 3.440573711801879e-06    2    2   15    5
 5.292530351091314e-05    2    2   15    6
 -6.511114919098612e-05    2    2   15    7
 -8.113681824912792e-06    2    2   15    8
 -4.824578973398617e-05    2    2   15    9
 -2.367022826490593e-05    2    2   15   10
 -1.601744787304355e-05    2    2   15   11
 -6.396583970592459e-06    2    2   15   12
 3.488613871931439e-05    2    2   15   13
 -1.269909693029057e-05    2    2   15   14
 0.05943199855086994    2    2   15   15
 -1.582046134712697e-05    2    2   16    1
 -0.0006392628652453097    2    2   16    2
 -0.0006897708974845371    2    2   16    3
 4.341567492219303e-06    2    2   16    4
 -3.253770398843558e-06    2    2   16    5
 0.0003069042600892655    2    2   16    6
 6.112999911469177e-06    2    2   16    7
 -0.0002803101119629252    2    2   16    8
 2.767662153056246e-06    2    2   16    9
 0.001744762677788958    2    2   16   10
 -6.096611795977929e-05    2    2   16   11
 1.982956835795907e-05    2    2   16   12
 -6.559464151278111e-06    2    2   16   13
 1.180813938576831e-05    2    2   16   14
 -7.776179807151334e-07    2    2   16   15
 0.1769923663770131    2    2   16   16
 -0.0001389424240358572    2    2   17    1
 -0.0002946619913179051    2    2   17    2
 -2.242178714436471e-05    2    2   17    3
 -1.0193025302041e-05    2    2   17    4
 0.000133936802818717    2    2   17    5
 -0.0001119660704093224    2    2   17    6
 1.817679115815058e-05    2    2   17    7
 1.160997023503104e-05    2    2   17    8
 0.0003855794591426362    2    2   17    9
 5.537228309789357e-05    2    2   17   10
 -4.219639715631427e-07    2    2   17   11
 5.902462568167438e-05    2    2   17   12
 -1.267997927483035e-05    2    2   17   13
 0.0001934271471141218    2    2   17   14
 -4.671342353865021e-05    2    2   17   15
 6.830498952225193e-07    2    2   17   16
 0.08076222431637634    2    2   17   17
 -0.0007166409891547887    2    2   18    1
 -0.001912727877264782    2    2   18    2
 -0.0002345966005276503    2    2   18    3
 -2.192245894571133e-07    2    2   18    4
 0.0005520205285749638    2    2   18    5
 0.0005726619344652389    2    2   18    6
 3.674581739380446e-06    2    2   18    7
 -0.0009308969405854935    2    2   18    8
 -0.000116148894086802    2    2   18    9
 0.0004580917339175179    2    2   18   10
 -0.0001414134807830821    2    2   18   11
 -1.5913768495058e-05    2    2   18   12
 1.303683297973905e-05    2    2   18   13
 -1.508581874783214e-05    2    2   18   14
 -2.044159747830479e-06    2    2   18   15
 0.0001317142503615004    2    2   18   16
 -1.119513760003063e-05    2    2   18   17
 0.2024448844120146    2    2   18   18
 -0.0008796225707407413    2    2   19    1
 -0.002306781885473422    2    2   19    2
 -1.491643395304504e-05    2    2   19    3
 2.164859712196255e-05    2    2   19    4
 0.0004679263980997389    2    2   19    5
 -0.002809223895315859    2    2   19    6
 2.097520980021179e-05    2    2   19    7
 -0.0001515812089342653    2    2   19    8
 0.0002096317444312887    2    2   19    9
 0.0005605153527197538    2    2   19   10
 -0.001820477045418275    2    2   19   11
 0.0002141110118549044    2    2   19   12
 -2.375259506680739e-05    2    2   19   13
 -2.461992042681466e-05    2    2   19   14
 -7.987152249376345e-06    2    2   19   15