[Molden Format]
made by pyscf v[2.0.1]
[Atoms] (AU)
C   1   6     2.30715201389900    -1.36612962809100     0.00000000000000
C   2   6    -2.30715201389900    -1.36612962809100     0.00000000000000
C   3   6     2.30715201389900     1.36612962809100     0.00000000000000
C   4   6    -2.30715201389900     1.36612962809100     0.00000000000000
C   5   6     0.00000000000000    -2.64819012780300     0.00000000000000
C   6   6     0.00000000000000     2.64819012780300     0.00000000000000
C   7   6     6.92052984475300     1.36731216695600     0.00000000000000
C   8   6    -6.92052984475300     1.36731216695600     0.00000000000000
C   9   6     6.92052984475300    -1.36731216695600     0.00000000000000
C   10   6    -6.92052984475300    -1.36731216695600     0.00000000000000
C   11   6     4.65052830966800     2.64933873056800     0.00000000000000
C   12   6    -4.65052830966800     2.64933873056800     0.00000000000000
C   13   6     4.65052830966800    -2.64933873056800     0.00000000000000
C   14   6    -4.65052830966800    -2.64933873056800     0.00000000000000
C   15   6    11.51783390367000     1.35551508476500     0.00000000000000
C   16   6   -11.51783390367000     1.35551508476500     0.00000000000000
C   17   6    11.51783390367000    -1.35551508476500     0.00000000000000
C   18   6   -11.51783390367000    -1.35551508476500     0.00000000000000
C   19   6     9.31130451375400     2.65735609478700     0.00000000000000
C   20   6    -9.31130451375400     2.65735609478700     0.00000000000000
C   21   6     9.31130451375400    -2.65735609478700     0.00000000000000
C   22   6    -9.31130451375400    -2.65735609478700     0.00000000000000
H   23   1     0.00000000000000    -4.70240161787800     0.00000000000000
H   24   1     0.00000000000000     4.70240161787800     0.00000000000000
H   25   1     4.65001377033800    -4.70374453466600     0.00000000000000
H   26   1    -4.65001377033800    -4.70374453466600     0.00000000000000
H   27   1     4.65001377033800     4.70374453466600     0.00000000000000
H   28   1    -4.65001377033800     4.70374453466600     0.00000000000000
H   29   1    13.30875727782200    -2.35585338114900     0.00000000000000
H   30   1   -13.30875727782200    -2.35585338114900     0.00000000000000
H   31   1    13.30875727782200     2.35585338114900     0.00000000000000
H   32   1   -13.30875727782200     2.35585338114900     0.00000000000000
H   33   1     9.30395884603800    -4.71030603514400     0.00000000000000
H   34   1    -9.30395884603800    -4.71030603514400     0.00000000000000
H   35   1     9.30395884603800     4.71030603514400     0.00000000000000
H   36   1    -9.30395884603800     4.71030603514400     0.00000000000000
[GTO]
1 0
 s    6 1.00
             3047.5249  0.0018347001629433
             457.36951    0.01403730124668
             103.94869   0.068842606114048
             29.210155    0.23218442062076
              9.286663    0.46794134155879
              3.163927    0.36231203217765
 s    3 1.00
             7.8682724   -0.11933240861517
             1.8812885   -0.16085421161283
             0.5442493     1.1434564825515
 s    1 1.00
             0.1687144                   1
 p    3 1.00
             7.8682724   0.068999095584993
             1.8812885    0.31642397975315
             0.5442493    0.74430825237435
 p    1 1.00
             0.1687144                   1

2 0
 s    6 1.00
             3047.5249  0.0018347001629433
             457.36951    0.01403730124668
             103.94869   0.068842606114048
             29.210155    0.23218442062076
              9.286663    0.46794134155879
              3.163927    0.36231203217765
 s    3 1.00
             7.8682724   -0.11933240861517
             1.8812885   -0.16085421161283
             0.5442493     1.1434564825515
 s    1 1.00
             0.1687144                   1
 p    3 1.00
             7.8682724   0.068999095584993
             1.8812885    0.31642397975315
             0.5442493    0.74430825237435
 p    1 1.00
             0.1687144                   1

3 0
 s    6 1.00
             3047.5249  0.0018347001629433
             457.36951    0.01403730124668
             103.94869   0.068842606114048
             29.210155    0.23218442062076
              9.286663    0.46794134155879
              3.163927    0.36231203217765
 s    3 1.00
             7.8682724   -0.11933240861517
             1.8812885   -0.16085421161283
             0.5442493     1.1434564825515
 s    1 1.00
             0.1687144                   1
 p    3 1.00
             7.8682724   0.068999095584993
             1.8812885    0.31642397975315
             0.5442493    0.74430825237435
 p    1 1.00
             0.1687144                   1

4 0
 s    6 1.00
             3047.5249  0.0018347001629433
             457.36951    0.01403730124668
             103.94869   0.068842606114048
             29.210155    0.23218442062076
              9.286663    0.46794134155879
              3.163927    0.36231203217765
 s    3 1.00
             7.8682724   -0.11933240861517
             1.8812885   -0.16085421161283
             0.5442493     1.1434564825515
 s    1 1.00
             0.1687144                   1
 p    3 1.00
             7.8682724   0.068999095584993
             1.8812885    0.31642397975315
             0.5442493    0.74430825237435
 p    1 1.00
             0.1687144                   1

5 0
 s    6 1.00
             3047.5249  0.0018347001629433
             457.36951    0.01403730124668
             103.94869   0.068842606114048
             29.210155    0.23218442062076
              9.286663    0.46794134155879
              3.163927    0.36231203217765
 s    3 1.00
             7.8682724   -0.11933240861517
             1.8812885   -0.16085421161283
             0.5442493     1.1434564825515
 s    1 1.00
             0.1687144                   1
 p    3 1.00
             7.8682724   0.068999095584993
             1.8812885    0.31642397975315
             0.5442493    0.74430825237435
 p    1 1.00
             0.1687144                   1

6 0
 s    6 1.00
             3047.5249  0.0018347001629433
             457.36951    0.01403730124668
             103.94869   0.068842606114048
             29.210155    0.23218442062076
              9.286663    0.46794134155879
              3.163927    0.36231203217765
 s    3 1.00
             7.8682724   -0.11933240861517
             1.8812885   -0.16085421161283
             0.5442493     1.1434564825515
 s    1 1.00
             0.1687144                   1
 p    3 1.00
             7.8682724   0.068999095584993
             1.8812885    0.31642397975315
             0.5442493    0.74430825237435
 p    1 1.00
             0.1687144                   1

7 0
 s    6 1.00
             3047.5249  0.0018347001629433
             457.36951    0.01403730124668
             103.94869   0.068842606114048
             29.210155    0.23218442062076
              9.286663    0.46794134155879
              3.163927    0.36231203217765
 s    3 1.00
             7.8682724   -0.11933240861517
             1.8812885   -0.16085421161283
             0.5442493     1.1434564825515
 s    1 1.00
             0.1687144                   1
 p    3 1.00
             7.8682724   0.068999095584993
             1.8812885    0.31642397975315
             0.5442493    0.74430825237435
 p    1 1.00
             0.1687144                   1

8 0
 s    6 1.00
             3047.5249  0.0018347001629433
             457.36951    0.01403730124668
             103.94869   0.068842606114048
             29.210155    0.23218442062076
              9.286663    0.46794134155879
              3.163927    0.36231203217765
 s    3 1.00
             7.8682724   -0.11933240861517
             1.8812885   -0.16085421161283
             0.5442493     1.1434564825515
 s    1 1.00
             0.1687144                   1
 p    3 1.00
             7.8682724   0.068999095584993
             1.8812885    0.31642397975315
             0.5442493    0.74430825237435
 p    1 1.00
             0.1687144                   1

9 0
 s    6 1.00
             3047.5249  0.0018347001629433
             457.36951    0.01403730124668
             103.94869   0.068842606114048
             29.210155    0.23218442062076
              9.286663    0.46794134155879
              3.163927    0.36231203217765
 s    3 1.00
             7.8682724   -0.11933240861517
             1.8812885   -0.16085421161283
             0.5442493     1.1434564825515
 s    1 1.00
             0.1687144                   1
 p    3 1.00
             7.8682724   0.068999095584993
             1.8812885    0.31642397975315
             0.5442493    0.74430825237435
 p    1 1.00
             0.1687144                   1

10 0
 s    6 1.00
             3047.5249  0.0018347001629433
             457.36951    0.01403730124668
             103.94869   0.068842606114048
             29.210155    0.23218442062076
              9.286663    0.46794134155879
              3.163927    0.36231203217765
 s    3 1.00
             7.8682724   -0.11933240861517
             1.8812885   -0.16085421161283
             0.5442493     1.1434564825515
 s    1 1.00
             0.1687144                   1
 p    3 1.00
             7.8682724   0.068999095584993
             1.8812885    0.31642397975315
             0.5442493    0.74430825237435
 p    1 1.00
             0.1687144                   1

11 0
 s    6 1.00
             3047.5249  0.0018347001629433
             457.36951    0.01403730124668
             103.94869   0.068842606114048
             29.210155    0.23218442062076
              9.286663    0.46794134155879
              3.163927    0.36231203217765
 s    3 1.00
             7.8682724   -0.11933240861517
             1.8812885   -0.16085421161283
             0.5442493     1.1434564825515
 s    1 1.00
             0.1687144                   1
 p    3 1.00
             7.8682724   0.068999095584993
             1.8812885    0.31642397975315
             0.5442493    0.74430825237435
 p    1 1.00
             0.1687144                   1

12 0
 s    6 1.00
             3047.5249  0.0018347001629433
             457.36951    0.01403730124668
             103.94869   0.068842606114048
             29.210155    0.23218442062076
              9.286663    0.46794134155879
              3.163927    0.36231203217765
 s    3 1.00
             7.8682724   -0.11933240861517
             1.8812885   -0.16085421161283
             0.5442493     1.1434564825515
 s    1 1.00
             0.1687144                   1
 p    3 1.00
             7.8682724   0.068999095584993
             1.8812885    0.31642397975315
             0.5442493    0.74430825237435
 p    1 1.00
             0.1687144                   1

13 0
 s    6 1.00
             3047.5249  0.0018347001629433
             457.36951    0.01403730124668
             103.94869   0.068842606114048
             29.210155    0.23218442062076
              9.286663    0.46794134155879
              3.163927    0.36231203217765
 s    3 1.00
             7.8682724   -0.11933240861517
             1.8812885   -0.16085421161283
             0.5442493     1.1434564825515
 s    1 1.00
             0.1687144                   1
 p    3 1.00
             7.8682724   0.068999095584993
             1.8812885    0.31642397975315
             0.5442493    0.74430825237435
 p    1 1.00
             0.1687144                   1

14 0
 s    6 1.00
             3047.5249  0.0018347001629433
             457.36951    0.01403730124668
             103.94869   0.068842606114048
             29.210155    0.23218442062076
              9.286663    0.46794134155879
              3.163927    0.36231203217765
 s    3 1.00
             7.8682724   -0.11933240861517
             1.8812885   -0.16085421161283
             0.5442493     1.1434564825515
 s    1 1.00
             0.1687144                   1
 p    3 1.00
             7.8682724   0.068999095584993
             1.8812885    0.31642397975315
             0.5442493    0.74430825237435
 p    1 1.00
             0.1687144                   1

15 0
 s    6 1.00
             3047.5249  0.0018347001629433
             457.36951    0.01403730124668
             103.94869   0.068842606114048
             29.210155    0.23218442062076
              9.286663    0.46794134155879
              3.163927    0.36231203217765
 s    3 1.00
             7.8682724   -0.11933240861517
             1.8812885   -0.16085421161283
             0.5442493     1.1434564825515
 s    1 1.00
             0.1687144                   1
 p    3 1.00
             7.8682724   0.068999095584993
             1.8812885    0.31642397975315
             0.5442493    0.74430825237435
 p    1 1.00
             0.1687144                   1

16 0
 s    6 1.00
             3047.5249  0.0018347001629433
             457.36951    0.01403730124668
             103.94869   0.068842606114048
             29.210155    0.23218442062076
              9.286663    0.46794134155879
              3.163927    0.36231203217765
 s    3 1.00
             7.8682724   -0.11933240861517
             1.8812885   -0.16085421161283
             0.5442493     1.1434564825515
 s    1 1.00
             0.1687144                   1
 p    3 1.00
             7.8682724   0.068999095584993
             1.8812885    0.31642397975315
             0.5442493    0.74430825237435
 p    1 1.00
             0.1687144                   1

17 0
 s    6 1.00
             3047.5249  0.0018347001629433
             457.36951    0.01403730124668
             103.94869   0.068842606114048
             29.210155    0.23218442062076
              9.286663    0.46794134155879
              3.163927    0.36231203217765
 s    3 1.00
             7.8682724   -0.11933240861517
             1.8812885   -0.16085421161283
             0.5442493     1.1434564825515
 s    1 1.00
             0.1687144                   1
 p    3 1.00
             7.8682724   0.068999095584993
             1.8812885    0.31642397975315
             0.5442493    0.74430825237435
 p    1 1.00
             0.1687144                   1

18 0
 s    6 1.00
             3047.5249  0.0018347001629433
             457.36951    0.01403730124668
             103.94869   0.068842606114048
             29.210155    0.23218442062076
              9.286663    0.46794134155879
              3.163927    0.36231203217765
 s    3 1.00
             7.8682724   -0.11933240861517
             1.8812885   -0.16085421161283
             0.5442493     1.1434564825515
 s    1 1.00
             0.1687144                   1
 p    3 1.00
             7.8682724   0.068999095584993
             1.8812885    0.31642397975315
             0.5442493    0.74430825237435
 p    1 1.00
             0.1687144                   1

19 0
 s    6 1.00
             3047.5249  0.0018347001629433
             457.36951    0.01403730124668
             103.94869   0.068842606114048
             29.210155    0.23218442062076
              9.286663    0.46794134155879
              3.163927    0.36231203217765
 s    3 1.00
             7.8682724   -0.11933240861517
             1.8812885   -0.16085421161283
             0.5442493     1.1434564825515
 s    1 1.00
             0.1687144                   1
 p    3 1.00
             7.8682724   0.068999095584993
             1.8812885    0.31642397975315
             0.5442493    0.74430825237435
 p    1 1.00
             0.1687144                   1

20 0
 s    6 1.00
             3047.5249  0.0018347001629433
             457.36951    0.01403730124668
             103.94869   0.068842606114048
             29.210155    0.23218442062076
              9.286663    0.46794134155879
              3.163927    0.36231203217765
 s    3 1.00
             7.8682724   -0.11933240861517
             1.8812885   -0.16085421161283
             0.5442493     1.1434564825515
 s    1 1.00
             0.1687144                   1
 p    3 1.00
             7.8682724   0.068999095584993
             1.8812885    0.31642397975315
             0.5442493    0.74430825237435
 p    1 1.00
             0.1687144                   1

21 0
 s    6 1.00
             3047.5249  0.0018347001629433
             457.36951    0.01403730124668
             103.94869   0.068842606114048
             29.210155    0.23218442062076
              9.286663    0.46794134155879
              3.163927    0.36231203217765
 s    3 1.00
             7.8682724   -0.11933240861517
             1.8812885   -0.16085421161283
             0.5442493     1.1434564825515
 s    1 1.00
             0.1687144                   1
 p    3 1.00
             7.8682724   0.068999095584993
             1.8812885    0.31642397975315
             0.5442493    0.74430825237435
 p    1 1.00
             0.1687144                   1

22 0
 s    6 1.00
             3047.5249  0.0018347001629433
             457.36951    0.01403730124668
             103.94869   0.068842606114048
             29.210155    0.23218442062076
              9.286663    0.46794134155879
              3.163927    0.36231203217765
 s    3 1.00
             7.8682724   -0.11933240861517
             1.8812885   -0.16085421161283
             0.5442493     1.1434564825515
 s    1 1.00
             0.1687144                   1
 p    3 1.00
             7.8682724   0.068999095584993
             1.8812885    0.31642397975315
             0.5442493    0.74430825237435
 p    1 1.00
             0.1687144                   1

23 0
 s    3 1.00
             18.731137    0.03349459952309
             2.8253937    0.23472694665786
             0.6401217    0.81375731841339
 s    1 1.00
             0.1612778                   1

24 0
 s    3 1.00
             18.731137    0.03349459952309
             2.8253937    0.23472694665786
             0.6401217    0.81375731841339
 s    1 1.00
             0.1612778                   1

25 0
 s    3 1.00
             18.731137    0.03349459952309
             2.8253937    0.23472694665786
             0.6401217    0.81375731841339
 s    1 1.00
             0.1612778                   1

26 0
 s    3 1.00
             18.731137    0.03349459952309
             2.8253937    0.23472694665786
             0.6401217    0.81375731841339
 s    1 1.00
             0.1612778                   1

27 0
 s    3 1.00
             18.731137    0.03349459952309
             2.8253937    0.23472694665786
             0.6401217    0.81375731841339
 s    1 1.00
             0.1612778                   1

28 0
 s    3 1.00
             18.731137    0.03349459952309
             2.8253937    0.23472694665786
             0.6401217    0.81375731841339
 s    1 1.00
             0.1612778                   1

29 0
 s    3 1.00
             18.731137    0.03349459952309
             2.8253937    0.23472694665786
             0.6401217    0.81375731841339
 s    1 1.00
             0.1612778                   1

30 0
 s    3 1.00
             18.731137    0.03349459952309
             2.8253937    0.23472694665786
             0.6401217    0.81375731841339
 s    1 1.00
             0.1612778                   1

31 0
 s    3 1.00
             18.731137    0.03349459952309
             2.8253937    0.23472694665786
             0.6401217    0.81375731841339
 s    1 1.00
             0.1612778                   1

32 0
 s    3 1.00
             18.731137    0.03349459952309
             2.8253937    0.23472694665786
             0.6401217    0.81375731841339
 s    1 1.00
             0.1612778                   1

33 0
 s    3 1.00
             18.731137    0.03349459952309
             2.8253937    0.23472694665786
             0.6401217    0.81375731841339
 s    1 1.00
             0.1612778                   1

34 0
 s    3 1.00
             18.731137    0.03349459952309
             2.8253937    0.23472694665786
             0.6401217    0.81375731841339
 s    1 1.00
             0.1612778                   1

35 0
 s    3 1.00
             18.731137    0.03349459952309
             2.8253937    0.23472694665786
             0.6401217    0.81375731841339
 s    1 1.00
             0.1612778                   1

36 0
 s    3 1.00
             18.731137    0.03349459952309
             2.8253937    0.23472694665786
             0.6401217    0.81375731841339
 s    1 1.00
             0.1612778                   1

[5d]
[7f]
[9g]

[MO]
 Sym= A
 Ene=               0
 Spin= Alpha
 Occup=    1.00000
   1                     0
   2                     0
   3                     0
   4                     0
   5                     0
   6      0.08848444359678
   7                     0
   8                     0
   9      0.11662262846547
  10                     0
  11                     0
  12                     0
  13                     0
  14                     0
  15    0.0044981661953029
  16                     0
  17                     0
  18    -0.0018086900661054
  19                     0
  20                     0
  21                     0
  22                     0
  23                     0
  24     -0.69849858366667
  25                     0
  26                     0
  27     -0.58515115929257
  28                     0
  29                     0
  30                     0
  31                     0
  32                     0
  33    -0.017612309201831
  34                     0
  35                     0
  36    0.0092626944316412
  37                     0
  38                     0
  39                     0
  40                     0
  41                     0
  42    -0.017514809476478
  43                     0
  44                     0
  45    -0.00096969044373402
  46                     0
  47                     0
  48                     0
  49                     0
  50                     0
  51      0.11118008267402
  52                     0
  53                     0
  54     0.091646843970334
  55                     0
  56                     0
  57                     0
  58                     0
  59                     0
  60    -0.021511458238164
  61                     0
  62                     0
  63     0.012838139480866
  64                     0
  65                     0
  66                     0
  67                     0
  68                     0
  69    3.4172676302104e-05
  70                     0
  71                     0
  72    0.0030644362318161
  73                     0
  74                     0
  75                     0
  76                     0
  77                     0
  78    0.0040620274616622
  79                     0
  80                     0
  81    -0.0015505660041717
  82                     0
  83                     0
  84                     0
  85                     0
  86                     0
  87    0.0039781418577379
  88                     0
  89                     0
  90    -0.0069086488242794
  91                     0
  92                     0
  93                     0
  94                     0
  95                     0
  96       0.1020971699832
  97                     0
  98                     0
  99     0.095587454005002
 100                     0
 101                     0
 102                     0
 103                     0
 104                     0
 105    -0.0069227795699882
 106                     0
 107                     0
 108    -0.00085825617886365
 109                     0
 110                     0
 111                     0
 112                     0
 113                     0
 114    -0.012793035428268
 115                     0
 116                     0
 117    -0.0068087071129659
 118                     0
 119                     0
 120                     0
 121                     0
 122                     0
 123    0.00020912235279415
 124                     0
 125                     0
 126    0.0011686318064761
 127                     0
 128                     0
 129                     0
 130                     0
 131                     0
 132    0.0023514979035147
 133                     0
 134                     0
 135    -0.00052513594275698
 136                     0
 137                     0
 138                     0
 139                     0
 140                     0
 141    0.00060849807238922
 142                     0
 143                     0
 144    -0.00083311842671706
 145                     0
 146                     0
 147                     0
 148                     0
 149                     0
 150    0.0043383393882327
 151                     0
 152                     0
 153    -0.0063878101411783
 154                     0
 155                     0
 156                     0
 157                     0
 158                     0
 159    -0.001779293353932
 160                     0
 161                     0
 162    0.0022540834083412
 163                     0
 164                     0
 165                     0
 166                     0
 167                     0
 168    -0.0062993593744292
 169                     0
 170                     0
 171    -0.0014796483010205
 172                     0
 173                     0
 174                     0
 175                     0
 176                     0
 177    0.0010428167754507
 178                     0
 179                     0
 180    -0.0015547493311185
 181                     0
 182                     0
 183                     0
 184                     0
 185                     0
 186    -0.0014285950295728
 187                     0
 188                     0
 189    0.0034095589570527
 190                     0
 191                     0
 192                     0
 193                     0
 194                     0
 195    0.00019448350206668
 196                     0
 197                     0
 198    0.0009882776651794
 199                     0
 200                     0
 201                     0
 202                     0
 203                     0
 204                     0
 205                     0
 206                     0
 207                     0
 208                     0
 209                     0
 210                     0
 211                     0
 212                     0
 213                     0
 214                     0
 215                     0
 216                     0
 217                     0
 218                     0
 219                     0
 220                     0
 221                     0
 222                     0
 223                     0
 224                     0
 225                     0
 226                     0
 Sym= A
 Ene=               1
 Spin= Alpha
 Occup=    1.00000
   1                     0
   2                     0
   3                     0
   4                     0
   5                     0
   6    -0.014538136601663
   7                     0
   8                     0
   9     0.006993995649354
  10                     0
  11                     0
  12                     0
  13                     0
  14                     0
  15    -0.00063018071218067
  16                     0
  17                     0
  18    0.0039515068934391
  19                     0
  20                     0
  21                     0
  22                     0
  23                     0
  24    0.0033501521280553
  25                     0
  26                     0
  27    -8.6158745082415e-05
  28                     0
  29                     0
  30                     0
  31                     0
  32                     0
  33     0.004142144152633
  34                     0
  35                     0
  36    -0.0072386365586797
  37                     0
  38                     0
  39                     0
  40                     0
  41                     0
  42    -0.007577733379136
  43                     0
  44                     0
  45    0.00079028664836951
  46                     0
  47                     0
  48                     0
  49                     0
  50                     0
  51    0.0017520492423981
  52                     0
  53                     0
  54    -0.0015803816966423
  55                     0
  56                     0
  57                     0
  58                     0
  59                     0
  60     0.087476514741386
  61                     0
  62                     0
  63      0.11551710747569
  64                     0
  65                     0
  66                     0
  67                     0
  68                     0
  69    -0.0016039649748909
  70                     0
  71                     0
  72    0.0019294592733319
  73                     0
  74                     0
  75                     0
  76                     0
  77                     0
  78     -0.70224981141452
  79                     0
  80                     0
  81     -0.57774253774808
  82                     0
  83                     0
  84                     0
  85                     0
  86                     0
  87    0.0011858442135875
  88                     0
  89                     0
  90    -0.0014103448337555
  91                     0
  92                     0
  93                     0
  94                     0
  95                     0
  96    -0.022170597298881
  97                     0
  98                     0
  99    0.0046665936438786
 100                     0
 101                     0
 102                     0
 103                     0
 104                     0
 105    -0.00090066640054889
 106                     0
 107                     0
 108    0.0028237768376391
 109                     0
 110                     0
 111                     0
 112                     0
 113                     0
 114      0.12064450113938
 115                     0
 116                     0
 117     0.083714054800213
 118                     0
 119                     0
 120                     0
 121                     0
 122                     0
 123    0.0015984741264185
 124                     0