[Molden Format]
made by pyscf v[2.0.1]
[Atoms] (AU)
C   1   6     1.90431021741700     1.90431021741700     0.00000000000000
C   2   6     2.60093432207200    -0.69679716397900     0.00000000000000
C   3   6     0.69679716397900    -2.60093432207200     0.00000000000000
C   4   6    -1.90431021741700    -1.90431021741700     0.00000000000000
C   5   6    -2.60093432207200     0.69679716397900     0.00000000000000
C   6   6    -0.69679716397900     2.60093432207200     0.00000000000000
C   7   6     3.78849027928500     3.78849027928500     0.00000000000000
C   8   6     6.36982761877800     3.04155935446600     0.00000000000000
C   9   6     7.03655183811200     0.55120061130100     0.00000000000000
C   10   6     5.17464587300000    -1.38658099527900     0.00000000000000
C   11   6     5.81856147530700    -3.99556094000600     0.00000000000000
C   12   6     3.99556094000600    -5.81856147530700     0.00000000000000
C   13   6     1.38658099527900    -5.17464587300000     0.00000000000000
C   14   6    -0.55120061130100    -7.03655183811200     0.00000000000000
C   15   6    -3.04155935446600    -6.36982761877800     0.00000000000000
C   16   6    -3.78849027928500    -3.78849027928500     0.00000000000000
C   17   6    -6.36982761877800    -3.04155935446600     0.00000000000000
C   18   6    -7.03655183811200    -0.55120061130100     0.00000000000000
C   19   6    -5.17464587300000     1.38658099527900     0.00000000000000
C   20   6    -5.81856147530700     3.99556094000600     0.00000000000000
C   21   6    -3.99556094000600     5.81856147530700     0.00000000000000
C   22   6    -1.38658099527900     5.17464587300000     0.00000000000000
C   23   6     0.55120061130100     7.03655183811200     0.00000000000000
C   24   6     3.04155935446600     6.36982761877800     0.00000000000000
H   25   1     4.49991113929800     7.81464050440300     0.00000000000000
H   26   1     7.81464050440300     4.49991113929800     0.00000000000000
H   27   1     9.01687280305900     0.01029128548700     0.00000000000000
H   28   1     7.80401888596400    -4.51732423957300     0.00000000000000
H   29   1     4.51732423957300    -7.80401888596400     0.00000000000000
H   30   1    -0.01029128548700    -9.01687280305900     0.00000000000000
H   31   1    -4.49991113929800    -7.81464050440300     0.00000000000000
H   32   1    -7.81464050440300    -4.49991113929800     0.00000000000000
H   33   1    -9.01687280305900    -0.01029128548700     0.00000000000000
H   34   1    -7.80401888596400     4.51732423957300     0.00000000000000
H   35   1    -4.51732423957300     7.80401888596400     0.00000000000000
H   36   1     0.01029128548700     9.01687280305900     0.00000000000000
[GTO]
1 0
 s    6 1.00
             3047.5249  0.0018347001629433
             457.36951    0.01403730124668
             103.94869   0.068842606114048
             29.210155    0.23218442062076
              9.286663    0.46794134155879
              3.163927    0.36231203217765
 s    3 1.00
             7.8682724   -0.11933240861517
             1.8812885   -0.16085421161283
             0.5442493     1.1434564825515
 s    1 1.00
             0.1687144                   1
 p    3 1.00
             7.8682724   0.068999095584993
             1.8812885    0.31642397975315
             0.5442493    0.74430825237435
 p    1 1.00
             0.1687144                   1

2 0
 s    6 1.00
             3047.5249  0.0018347001629433
             457.36951    0.01403730124668
             103.94869   0.068842606114048
             29.210155    0.23218442062076
              9.286663    0.46794134155879
              3.163927    0.36231203217765
 s    3 1.00
             7.8682724   -0.11933240861517
             1.8812885   -0.16085421161283
             0.5442493     1.1434564825515
 s    1 1.00
             0.1687144                   1
 p    3 1.00
             7.8682724   0.068999095584993
             1.8812885    0.31642397975315
             0.5442493    0.74430825237435
 p    1 1.00
             0.1687144                   1

3 0
 s    6 1.00
             3047.5249  0.0018347001629433
             457.36951    0.01403730124668
             103.94869   0.068842606114048
             29.210155    0.23218442062076
              9.286663    0.46794134155879
              3.163927    0.36231203217765
 s    3 1.00
             7.8682724   -0.11933240861517
             1.8812885   -0.16085421161283
             0.5442493     1.1434564825515
 s    1 1.00
             0.1687144                   1
 p    3 1.00
             7.8682724   0.068999095584993
             1.8812885    0.31642397975315
             0.5442493    0.74430825237435
 p    1 1.00
             0.1687144                   1

4 0
 s    6 1.00
             3047.5249  0.0018347001629433
             457.36951    0.01403730124668
             103.94869   0.068842606114048
             29.210155    0.23218442062076
              9.286663    0.46794134155879
              3.163927    0.36231203217765
 s    3 1.00
             7.8682724   -0.11933240861517
             1.8812885   -0.16085421161283
             0.5442493     1.1434564825515
 s    1 1.00
             0.1687144                   1
 p    3 1.00
             7.8682724   0.068999095584993
             1.8812885    0.31642397975315
             0.5442493    0.74430825237435
 p    1 1.00
             0.1687144                   1

5 0
 s    6 1.00
             3047.5249  0.0018347001629433
             457.36951    0.01403730124668
             103.94869   0.068842606114048
             29.210155    0.23218442062076
              9.286663    0.46794134155879
              3.163927    0.36231203217765
 s    3 1.00
             7.8682724   -0.11933240861517
             1.8812885   -0.16085421161283
             0.5442493     1.1434564825515
 s    1 1.00
             0.1687144                   1
 p    3 1.00
             7.8682724   0.068999095584993
             1.8812885    0.31642397975315
             0.5442493    0.74430825237435
 p    1 1.00
             0.1687144                   1

6 0
 s    6 1.00
             3047.5249  0.0018347001629433
             457.36951    0.01403730124668
             103.94869   0.068842606114048
             29.210155    0.23218442062076
              9.286663    0.46794134155879
              3.163927    0.36231203217765
 s    3 1.00
             7.8682724   -0.11933240861517
             1.8812885   -0.16085421161283
             0.5442493     1.1434564825515
 s    1 1.00
             0.1687144                   1
 p    3 1.00
             7.8682724   0.068999095584993
             1.8812885    0.31642397975315
             0.5442493    0.74430825237435
 p    1 1.00
             0.1687144                   1

7 0
 s    6 1.00
             3047.5249  0.0018347001629433
             457.36951    0.01403730124668
             103.94869   0.068842606114048
             29.210155    0.23218442062076
              9.286663    0.46794134155879
              3.163927    0.36231203217765
 s    3 1.00
             7.8682724   -0.11933240861517
             1.8812885   -0.16085421161283
             0.5442493     1.1434564825515
 s    1 1.00
             0.1687144                   1
 p    3 1.00
             7.8682724   0.068999095584993
             1.8812885    0.31642397975315
             0.5442493    0.74430825237435
 p    1 1.00
             0.1687144                   1

8 0
 s    6 1.00
             3047.5249  0.0018347001629433
             457.36951    0.01403730124668
             103.94869   0.068842606114048
             29.210155    0.23218442062076
              9.286663    0.46794134155879
              3.163927    0.36231203217765
 s    3 1.00
             7.8682724   -0.11933240861517
             1.8812885   -0.16085421161283
             0.5442493     1.1434564825515
 s    1 1.00
             0.1687144                   1
 p    3 1.00
             7.8682724   0.068999095584993
             1.8812885    0.31642397975315
             0.5442493    0.74430825237435
 p    1 1.00
             0.1687144                   1

9 0
 s    6 1.00
             3047.5249  0.0018347001629433
             457.36951    0.01403730124668
             103.94869   0.068842606114048
             29.210155    0.23218442062076
              9.286663    0.46794134155879
              3.163927    0.36231203217765
 s    3 1.00
             7.8682724   -0.11933240861517
             1.8812885   -0.16085421161283
             0.5442493     1.1434564825515
 s    1 1.00
             0.1687144                   1
 p    3 1.00
             7.8682724   0.068999095584993
             1.8812885    0.31642397975315
             0.5442493    0.74430825237435
 p    1 1.00
             0.1687144                   1

10 0
 s    6 1.00
             3047.5249  0.0018347001629433
             457.36951    0.01403730124668
             103.94869   0.068842606114048
             29.210155    0.23218442062076
              9.286663    0.46794134155879
              3.163927    0.36231203217765
 s    3 1.00
             7.8682724   -0.11933240861517
             1.8812885   -0.16085421161283
             0.5442493     1.1434564825515
 s    1 1.00
             0.1687144                   1
 p    3 1.00
             7.8682724   0.068999095584993
             1.8812885    0.31642397975315
             0.5442493    0.74430825237435
 p    1 1.00
             0.1687144                   1

11 0
 s    6 1.00
             3047.5249  0.0018347001629433
             457.36951    0.01403730124668
             103.94869   0.068842606114048
             29.210155    0.23218442062076
              9.286663    0.46794134155879
              3.163927    0.36231203217765
 s    3 1.00
             7.8682724   -0.11933240861517
             1.8812885   -0.16085421161283
             0.5442493     1.1434564825515
 s    1 1.00
             0.1687144                   1
 p    3 1.00
             7.8682724   0.068999095584993
             1.8812885    0.31642397975315
             0.5442493    0.74430825237435
 p    1 1.00
             0.1687144                   1

12 0
 s    6 1.00
             3047.5249  0.0018347001629433
             457.36951    0.01403730124668
             103.94869   0.068842606114048
             29.210155    0.23218442062076
              9.286663    0.46794134155879
              3.163927    0.36231203217765
 s    3 1.00
             7.8682724   -0.11933240861517
             1.8812885   -0.16085421161283
             0.5442493     1.1434564825515
 s    1 1.00
             0.1687144                   1
 p    3 1.00
             7.8682724   0.068999095584993
             1.8812885    0.31642397975315
             0.5442493    0.74430825237435
 p    1 1.00
             0.1687144                   1

13 0
 s    6 1.00
             3047.5249  0.0018347001629433
             457.36951    0.01403730124668
             103.94869   0.068842606114048
             29.210155    0.23218442062076
              9.286663    0.46794134155879
              3.163927    0.36231203217765
 s    3 1.00
             7.8682724   -0.11933240861517
             1.8812885   -0.16085421161283
             0.5442493     1.1434564825515
 s    1 1.00
             0.1687144                   1
 p    3 1.00
             7.8682724   0.068999095584993
             1.8812885    0.31642397975315
             0.5442493    0.74430825237435
 p    1 1.00
             0.1687144                   1

14 0
 s    6 1.00
             3047.5249  0.0018347001629433
             457.36951    0.01403730124668
             103.94869   0.068842606114048
             29.210155    0.23218442062076
              9.286663    0.46794134155879
              3.163927    0.36231203217765
 s    3 1.00
             7.8682724   -0.11933240861517
             1.8812885   -0.16085421161283
             0.5442493     1.1434564825515
 s    1 1.00
             0.1687144                   1
 p    3 1.00
             7.8682724   0.068999095584993
             1.8812885    0.31642397975315
             0.5442493    0.74430825237435
 p    1 1.00
             0.1687144                   1

15 0
 s    6 1.00
             3047.5249  0.0018347001629433
             457.36951    0.01403730124668
             103.94869   0.068842606114048
             29.210155    0.23218442062076
              9.286663    0.46794134155879
              3.163927    0.36231203217765
 s    3 1.00
             7.8682724   -0.11933240861517
             1.8812885   -0.16085421161283
             0.5442493     1.1434564825515
 s    1 1.00
             0.1687144                   1
 p    3 1.00
             7.8682724   0.068999095584993
             1.8812885    0.31642397975315
             0.5442493    0.74430825237435
 p    1 1.00
             0.1687144                   1

16 0
 s    6 1.00
             3047.5249  0.0018347001629433
             457.36951    0.01403730124668
             103.94869   0.068842606114048
             29.210155    0.23218442062076
              9.286663    0.46794134155879
              3.163927    0.36231203217765
 s    3 1.00
             7.8682724   -0.11933240861517
             1.8812885   -0.16085421161283
             0.5442493     1.1434564825515
 s    1 1.00
             0.1687144                   1
 p    3 1.00
             7.8682724   0.068999095584993
             1.8812885    0.31642397975315
             0.5442493    0.74430825237435
 p    1 1.00
             0.1687144                   1

17 0
 s    6 1.00
             3047.5249  0.0018347001629433
             457.36951    0.01403730124668
             103.94869   0.068842606114048
             29.210155    0.23218442062076
              9.286663    0.46794134155879
              3.163927    0.36231203217765
 s    3 1.00
             7.8682724   -0.11933240861517
             1.8812885   -0.16085421161283
             0.5442493     1.1434564825515
 s    1 1.00
             0.1687144                   1
 p    3 1.00
             7.8682724   0.068999095584993
             1.8812885    0.31642397975315
             0.5442493    0.74430825237435
 p    1 1.00
             0.1687144                   1

18 0
 s    6 1.00
             3047.5249  0.0018347001629433
             457.36951    0.01403730124668
             103.94869   0.068842606114048
             29.210155    0.23218442062076
              9.286663    0.46794134155879
              3.163927    0.36231203217765
 s    3 1.00
             7.8682724   -0.11933240861517
             1.8812885   -0.16085421161283
             0.5442493     1.1434564825515
 s    1 1.00
             0.1687144                   1
 p    3 1.00
             7.8682724   0.068999095584993
             1.8812885    0.31642397975315
             0.5442493    0.74430825237435
 p    1 1.00
             0.1687144                   1

19 0
 s    6 1.00
             3047.5249  0.0018347001629433
             457.36951    0.01403730124668
             103.94869   0.068842606114048
             29.210155    0.23218442062076
              9.286663    0.46794134155879
              3.163927    0.36231203217765
 s    3 1.00
             7.8682724   -0.11933240861517
             1.8812885   -0.16085421161283
             0.5442493     1.1434564825515
 s    1 1.00
             0.1687144                   1
 p    3 1.00
             7.8682724   0.068999095584993
             1.8812885    0.31642397975315
             0.5442493    0.74430825237435
 p    1 1.00
             0.1687144                   1

20 0
 s    6 1.00
             3047.5249  0.0018347001629433
             457.36951    0.01403730124668
             103.94869   0.068842606114048
             29.210155    0.23218442062076
              9.286663    0.46794134155879
              3.163927    0.36231203217765
 s    3 1.00
             7.8682724   -0.11933240861517
             1.8812885   -0.16085421161283
             0.5442493     1.1434564825515
 s    1 1.00
             0.1687144                   1
 p    3 1.00
             7.8682724   0.068999095584993
             1.8812885    0.31642397975315
             0.5442493    0.74430825237435
 p    1 1.00
             0.1687144                   1

21 0
 s    6 1.00
             3047.5249  0.0018347001629433
             457.36951    0.01403730124668
             103.94869   0.068842606114048
             29.210155    0.23218442062076
              9.286663    0.46794134155879
              3.163927    0.36231203217765
 s    3 1.00
             7.8682724   -0.11933240861517
             1.8812885   -0.16085421161283
             0.5442493     1.1434564825515
 s    1 1.00
             0.1687144                   1
 p    3 1.00
             7.8682724   0.068999095584993
             1.8812885    0.31642397975315
             0.5442493    0.74430825237435
 p    1 1.00
             0.1687144                   1

22 0
 s    6 1.00
             3047.5249  0.0018347001629433
             457.36951    0.01403730124668
             103.94869   0.068842606114048
             29.210155    0.23218442062076
              9.286663    0.46794134155879
              3.163927    0.36231203217765
 s    3 1.00
             7.8682724   -0.11933240861517
             1.8812885   -0.16085421161283
             0.5442493     1.1434564825515
 s    1 1.00
             0.1687144                   1
 p    3 1.00
             7.8682724   0.068999095584993
             1.8812885    0.31642397975315
             0.5442493    0.74430825237435
 p    1 1.00
             0.1687144                   1

23 0
 s    6 1.00
             3047.5249  0.0018347001629433
             457.36951    0.01403730124668
             103.94869   0.068842606114048
             29.210155    0.23218442062076
              9.286663    0.46794134155879
              3.163927    0.36231203217765
 s    3 1.00
             7.8682724   -0.11933240861517
             1.8812885   -0.16085421161283
             0.5442493     1.1434564825515
 s    1 1.00
             0.1687144                   1
 p    3 1.00
             7.8682724   0.068999095584993
             1.8812885    0.31642397975315
             0.5442493    0.74430825237435
 p    1 1.00
             0.1687144                   1

24 0
 s    6 1.00
             3047.5249  0.0018347001629433
             457.36951    0.01403730124668
             103.94869   0.068842606114048
             29.210155    0.23218442062076
              9.286663    0.46794134155879
              3.163927    0.36231203217765
 s    3 1.00
             7.8682724   -0.11933240861517
             1.8812885   -0.16085421161283
             0.5442493     1.1434564825515
 s    1 1.00
             0.1687144                   1
 p    3 1.00
             7.8682724   0.068999095584993
             1.8812885    0.31642397975315
             0.5442493    0.74430825237435
 p    1 1.00
             0.1687144                   1

25 0
 s    3 1.00
             18.731137    0.03349459952309
             2.8253937    0.23472694665786
             0.6401217    0.81375731841339
 s    1 1.00
             0.1612778                   1

26 0
 s    3 1.00
             18.731137    0.03349459952309
             2.8253937    0.23472694665786
             0.6401217    0.81375731841339
 s    1 1.00
             0.1612778                   1

27 0
 s    3 1.00
             18.731137    0.03349459952309
             2.8253937    0.23472694665786
             0.6401217    0.81375731841339
 s    1 1.00
             0.1612778                   1

28 0
 s    3 1.00
             18.731137    0.03349459952309
             2.8253937    0.23472694665786
             0.6401217    0.81375731841339
 s    1 1.00
             0.1612778                   1

29 0
 s    3 1.00
             18.731137    0.03349459952309
             2.8253937    0.23472694665786
             0.6401217    0.81375731841339
 s    1 1.00
             0.1612778                   1

30 0
 s    3 1.00
             18.731137    0.03349459952309
             2.8253937    0.23472694665786
             0.6401217    0.81375731841339
 s    1 1.00
             0.1612778                   1

31 0
 s    3 1.00
             18.731137    0.03349459952309
             2.8253937    0.23472694665786
             0.6401217    0.81375731841339
 s    1 1.00
             0.1612778                   1

32 0
 s    3 1.00
             18.731137    0.03349459952309
             2.8253937    0.23472694665786
             0.6401217    0.81375731841339
 s    1 1.00
             0.1612778                   1

33 0
 s    3 1.00
             18.731137    0.03349459952309
             2.8253937    0.23472694665786
             0.6401217    0.81375731841339
 s    1 1.00
             0.1612778                   1

34 0
 s    3 1.00
             18.731137    0.03349459952309
             2.8253937    0.23472694665786
             0.6401217    0.81375731841339
 s    1 1.00
             0.1612778                   1

35 0
 s    3 1.00
             18.731137    0.03349459952309
             2.8253937    0.23472694665786
             0.6401217    0.81375731841339
 s    1 1.00
             0.1612778                   1

36 0
 s    3 1.00
             18.731137    0.03349459952309
             2.8253937    0.23472694665786
             0.6401217    0.81375731841339
 s    1 1.00
             0.1612778                   1

[5d]
[7f]
[9g]

[MO]
 Sym= B1u
 Ene=               0
 Spin= Alpha
 Occup=    1.00000
   1                     0
   2                     0
   3                     0
   4                     0
   5                     0
   6      0.15409006435101
   7                     0
   8                     0
   9     0.085643116887313
  10                     0
  11                     0
  12                     0
  13                     0
  14                     0
  15      0.15406820381933
  16                     0
  17                     0
  18      0.08569473008508
  19                     0
  20                     0
  21                     0
  22                     0
  23                     0
  24      0.15406820381933
  25                     0
  26                     0
  27      0.08569473008508
  28                     0
  29                     0
  30                     0
  31                     0
  32                     0
  33      0.15409006435101
  34                     0
  35                     0
  36     0.085643116887313
  37                     0
  38                     0
  39                     0
  40                     0
  41                     0
  42      0.15406820381933
  43                     0
  44                     0
  45      0.08569473008508
  46                     0
  47                     0
  48                     0
  49                     0
  50                     0
  51      0.15406820381933
  52                     0
  53                     0
  54      0.08569473008508
  55                     0
  56                     0
  57                     0
  58                     0
  59                     0
  60      0.10701389994866
  61                     0
  62                     0
  63     0.058871725855617
  64                     0
  65                     0
  66                     0
  67                     0
  68                     0
  69     0.066888037579491
  70                     0
  71                     0
  72     0.036356277026892
  73                     0
  74                     0
  75                     0
  76                     0
  77                     0
  78     0.066900496229955
  79                     0
  80                     0
  81      0.03633779912077
  82                     0
  83                     0
  84                     0
  85                     0
  86                     0
  87      0.10701395666451
  88                     0
  89                     0
  90     0.058869002051787
  91                     0
  92                     0
  93                     0
  94                     0
  95                     0
  96     0.066893563529123
  97                     0
  98                     0
  99      0.03634537183761
 100                     0
 101                     0
 102                     0
 103                     0
 104                     0
 105     0.066893563529123
 106                     0
 107                     0
 108      0.03634537183761
 109                     0
 110                     0
 111                     0
 112                     0
 113                     0
 114      0.10701395666451
 115                     0
 116                     0
 117     0.058869002051787
 118                     0
 119                     0
 120                     0
 121                     0
 122                     0
 123     0.066900496229955
 124                     0
 125                     0
 126      0.03633779912077
 127                     0
 128                     0
 129                     0
 130                     0
 131                     0
 132     0.066888037579491
 133                     0
 134                     0
 135     0.036356277026892
 136                     0
 137                     0
 138                     0
 139                     0
 140                     0
 141      0.10701389994866
 142                     0
 143                     0
 144     0.058871725855617
 145                     0
 146                     0
 147                     0
 148                     0
 149                     0
 150     0.066888037579491
 151                     0
 152                     0
 153     0.036356277026892
 154                     0
 155                     0
 156                     0
 157                     0
 158                     0
 159     0.066900496229955
 160                     0
 161                     0
 162      0.03633779912077
 163                     0
 164                     0
 165                     0
 166                     0
 167                     0
 168      0.10701395666451
 169                     0
 170                     0
 171     0.058869002051787
 172                     0
 173                     0
 174                     0
 175                     0
 176                     0
 177     0.066893563529123
 178                     0
 179                     0
 180      0.03634537183761
 181                     0
 182                     0
 183                     0
 184                     0
 185                     0
 186     0.066893563529123
 187                     0
 188                     0
 189      0.03634537183761
 190                     0
 191                     0
 192                     0
 193                     0
 194                     0
 195      0.10701395666451
 196                     0
 197                     0
 198     0.058869002051787
 199                     0
 200                     0
 201                     0
 202                     0
 203                     0
 204     0.066900496229955
 205                     0
 206                     0
 207      0.03633779912077
 208                     0
 209                     0
 210                     0
 211                     0
 212                     0
 213     0.066888037579491
 214                     0
 215                     0
 216     0.036356277026892
 217                     0
 218                     0
 219                     0
 220                     0
 221                     0
 222                     0
 223                     0
 224                     0
 225                     0
 226                     0
 227                     0
 228                     0
 229                     0
 230                     0
 231                     0
 232                     0
 233                     0
 234                     0
 235                     0
 236                     0
 237                     0
 238                     0
 239                     0
 240                     0
 Sym= B3g
 Ene=               1
 Spin= Alpha
 Occup=    1.00000
   1                     0
   2                     0
   3                     0
   4                     0
   5                     0
   6      0.14734733014116
   7                     0
   8                     0
   9     0.090611849924326
  10                     0
  11                     0
  12                     0
  13                     0
  14                     0
  15     0.073660458036668
  16                     0
  17                     0
  18     0.045354830791111
  19                     0
  20                     0
  21                     0
  22                     0
  23                     0
  24    -0.073660458036668
  25                     0
  26                     0
  27    -0.045354830791111
  28                     0
  29                     0
  30                     0
  31                     0
  32                     0
  33     -0.14734733014116
  34                     0
  35                     0
  36    -0.090611849924326
  37                     0
  38                     0
  39                     0
  40                     0
  41                     0
  42    -0.073660458036668
  43                     0
  44                     0
  45    -0.045354830791111
  46                     0
  47                     0
  48                     0
  49                     0
  50                     0
  51     0.073660458036668
  52                     0
  53                     0
  54     0.045354830791111
  55                     0
  56                     0
  57                     0
  58                     0
  59                     0
  60      0.17870060294468
  61                     0
  62                     0
  63      0.11018440031134
  64                     0
  65                     0
  66                     0
  67                     0
  68                     0
  69      0.13050109259186
  70                     0
  71                     0
  72     0.077774207719014
  73                     0
  74                     0
  75                     0
  76                     0