 &FCI NORB=  24,NELEC=24,MS2=0,
  ORBSYM=1,1,1,1,1,1,1,1,1,1,1,1,1,1,1,1,1,1,1,1,1,1,1,1,
  ISYM=1,
 &END
 0.6343084512415151    1    1    1    1
 -0.0007994795349225347    1    1    2    1
 0.1373829031903546    1    1    2    2
 0.0008717165574150036    1    1    3    1
 -2.331377577162969e-05    1    1    3    2
 0.1373921823843508    1    1    3    3
 -0.001084781361279507    1    1    4    1
 4.862972744241263e-05    1    1    4    2
 -0.0003052795160821961    1    1    4    3
 0.2036744422972769    1    1    4    4
 -0.001540387870604558    1    1    5    1
 -3.920210145441118e-06    1    1    5    2
 8.464650132524158e-05    1    1    5    3
 0.001323941575658392    1    1    5    4
 0.2029835359473956    1    1    5    5
 0.001016469953912252    1    1    6    1
 0.0001052731480089163    1    1    6    2
 -0.001790099135249233    1    1    6    3
 0.0009465259717413024    1    1    6    4
 0.0002730329312510646    1    1    6    5
 0.2030372530771619    1    1    6    6
 0.0004158372097636812    1    1    7    1
 -2.363760741801838e-05    1    1    7    2
 -0.0003307866723244537    1    1    7    3
 -6.363382768200662e-05    1    1    7    4
 3.637059806232563e-05    1    1    7    5
 0.0001659054015669161    1    1    7    6
 0.1016070871500353    1    1    7    7
 0.001191056626532512    1    1    8    1
 -0.0003047125472578135    1    1    8    2
 5.473286073592128e-05    1    1    8    3
 -7.886752937039901e-05    1    1    8    4
 0.0002151164703661851    1    1    8    5
 -0.0002537389311536762    1    1    8    6
 -4.006601828334864e-06    1    1    8    7
 0.2036681435462061    1    1    8    8
 -0.00436176962552995    1    1    9    1
 0.0001691226775688454    1    1    9    2
 -0.000204356364705144    1    1    9    3
 0.002521607174636259    1    1    9    4
 -0.0005547356359584018    1    1    9    5
 -0.0022623830937863    1    1    9    6
 -0.0001377654230341741    1    1    9    7
 -0.0002311390835900901    1    1    9    8
 0.3222733328560143    1    1    9    9
 0.004557983226874553    1    1   10    1
 -0.0002119133602688913    1    1   10    2
 0.0001695461103754617    1    1   10    3
 -0.0002272823088822792    1    1   10    4
 -0.0004057778888608072    1    1   10    5
 -0.0004779135795449485    1    1   10    6
 4.506948567886445e-05    1    1   10    7
 0.002506977188645912    1    1   10    8
 0.00084863539385877    1    1   10    9
 0.3222328818970582    1    1   10   10
 -0.0006636432776477184    1    1   11    1
 3.984107127686551e-05    1    1   11    2
 -0.0005849508959912392    1    1   11    3
 -0.001788309989077651    1    1   11    4
 -0.0001428936824696604    1    1   11    5
 -0.0001829868635204401    1    1   11    6
 1.025500404006549e-05    1    1   11    7
 9.162690425541206e-06    1    1   11    8
 0.0001442740659607795    1    1   11    9
 3.966610171420308e-05    1    1   11   10
 0.1368792155123687    1    1   11   11
 -0.001523762310021235    1    1   12    1
 -8.61382294042891e-05    1    1   12    2
 1.89442402792164e-06    1    1   12    3
 -0.0002178598555816479    1    1   12    4
 -0.001012809877509961    1    1   12    5
 -8.094391990967782e-05    1    1   12    6
 -1.388990379623056e-05    1    1   12    7
 -0.001327434124968459    1    1   12    8
 0.0004049855512632506    1    1   12    9
 0.0005425291055659162    1    1   12   10
 7.039519148614955e-05    1    1   12   11
 0.2029681224438707    1    1   12   12
 0.0004404805363398523    1    1   13    1
 -4.356507434889067e-05    1    1   13    2
 -2.436869648833001e-05    1    1   13    3
 -0.0001031623464346678    1    1   13    4
 -0.0001991773231556888    1    1   13    5
 5.350169796602526e-05    1    1   13    6
 3.377917692531518e-06    1    1   13    7
 -0.0007260807115464002    1    1   13    8
 0.0003240950392243891    1    1   13    9
 0.001439582682332828    1    1   13   10
 5.187026338510159e-05    1    1   13   11
 0.0002702574219112006    1    1   13   12
 0.1781775266894333    1    1   13   13
 0.0001997307435674038    1    1   14    1
 -0.0001186680859820413    1    1   14    2
 -1.879874677272322e-06    1    1   14    3
 -5.426570507431755e-05    1    1   14    4
 -8.294814537576731e-05    1    1   14    5
 1.815419684576945e-05    1    1   14    6
 -4.993201132221776e-06    1    1   14    7
 0.0004767683225119426    1    1   14    8
 -8.267722964730194e-05    1    1   14    9
 0.0004570835039606452    1    1   14   10
 5.914356121545044e-06    1    1   14   11
 -1.529563995922951e-05    1    1   14   12
 2.071830007635226e-05    1    1   14   13
 0.1215946917946035    1    1   14   14
 0.001198151122991919    1    1   15    1
 0.001787956868432306    1    1   15    2
 -0.0001088520696944016    1    1   15    3
 0.0002513179142900029    1    1   15    4
 -8.486740195058107e-05    1    1   15    5
 0.001140592194050854    1    1   15    6
 -5.073219782884822e-05    1    1   15    7
 -0.0009493039782594883    1    1   15    8
 0.0004824561929181047    1    1   15    9
 0.002262842561289411    1    1   15   10
 4.336741887426758e-05    1    1   15   11
 0.0002686517150289503    1    1   15   12
 0.0002127689084187233    1    1   15   13
 0.0005681060432789638    1    1   15   14
 0.2030071437982238    1    1   15   15
 0.0008006941421859737    1    1   16    1
 -0.0006567458035126443    1    1   16    2
 0.000660044570917897    1    1   16    3
 -0.0001333275394302986    1    1   16    4
 -5.358624945921134e-05    1    1   16    5
 -0.0008687211367527684    1    1   16    6
 0.0002675953994449079    1    1   16    7
 0.0001387764442783782    1    1   16    8
 -0.001366345063042189    1    1   16    9
 0.001362388512565434    1    1   16   10
 -0.0001024351905346195    1    1   16   11
 -5.116848734698039e-05    1    1   16   12
 3.641486208946381e-05    1    1   16   13
 3.983845554099484e-05    1    1   16   14
 -0.0008630612946580307    1    1   16   15
 0.177758603756324    1    1   16   16
 -0.0002196622663754575    1    1   17    1
 0.0002344358732244324    1    1   17    2
 -0.0002370261032613569    1    1   17    3
 1.101585913028904e-06    1    1   17    4
 3.857857043863902e-05    1    1   17    5
 0.0005146629768611674    1    1   17    6
 -0.0001564399297000605    1    1   17    7
 -3.042570533554458e-06    1    1   17    8
 -7.865321891949726e-05    1    1   17    9
 7.610348348434512e-05    1    1   17   10
 -4.178894425404004e-05    1    1   17   11
 3.515900261318736e-05    1    1   17   12
 -2.491950875906334e-06    1    1   17   13
 1.946738845815178e-05    1    1   17   14
 0.0005126196873601999    1    1   17   15
 -0.001612153082339253    1    1   17   16
 0.1217022524799007    1    1   17   17
 0.000690968226199626    1    1   18    1
 -0.0005835208732563624    1    1   18    2
 4.221597191353156e-05    1    1   18    3
 7.445878221374463e-06    1    1   18    4
 -6.819299584227952e-05    1    1   18    5
 -4.636937514957311e-05    1    1   18    6
 -9.836698456339767e-06    1    1   18    7
 -0.001787450362997357    1    1   18    8
 4.181004179681019e-05    1    1   18    9
 0.0001438082023738157    1    1   18   10
 2.970164389169593e-07    1    1   18   11
 0.0001427285820364134    1    1   18   12
 0.0007174234959692317    1    1   18   13
 -4.559837277079641e-05    1    1   18   14
 0.0001881983298913285    1    1   18   15
 0.0001014168646231529    1    1   18   16
 4.123411775817613e-05    1    1   18   17
 0.136882519552163    1    1   18   18
 -3.320267283638326e-06    1    1   19    1
 -0.0005443057615273402    1    1   19    2
 3.52777895863907e-05    1    1   19    3
 6.541441951435767e-05    1    1   19    4
 -1.926733686032295e-06    1    1   19    5
 1.492728264435787e-05    1    1   19    6
 -3.514107520813598e-05    1    1   19    7
 2.41779027802076e-05    1    1   19    8
 0.0001091566501973591    1    1   19    9
 0.0002527952202158826    1    1   19   10
 1.601468964918618e-05    1    1   19   11
 2.556318317846033e-05    1    1   19   12
 8.045293201702858e-06    1    1   19   13
 0.0003968284764224572    1    1   19   14
 -9.11804655665475e-05    1    1   19   15
 -1.567461679742441e-05    1    1   19   16
 0.0003676364843204576    1    1   19   17
 5.217364065232498e-05    1    1   19   18
 0.1055821545819609    1    1   19   19
 9.783672954576505e-07    1    1   20    1
 3.48181719931367e-05    1    1   20    2
 -0.0005443938961487766    1    1   20    3
 2.7955591553893e-05    1    1   20    4
 -2.555654306463242e-05    1    1   20    5
 9.252710618979975e-05    1    1   20    6
 -2.624501248903421e-05    1    1   20    7
 6.314793289728326e-05    1    1   20    8
 0.0002549565181886515    1    1   20    9
 0.0001076810955307319    1    1   20   10
 5.176330779847544e-05    1    1   20   11
 2.054098011232483e-06    1    1   20   12
 -1.342692864798728e-06    1    1   20   13
 1.282956450367979e-05    1    1   20   14
 -1.226746053690982e-05    1    1   20   15
 1.634686111039199e-05    1    1   20   16
 -0.0003678592403080806    1    1   20   17
 1.488731525665135e-05    1    1   20   18
 -8.539513435454176e-06    1    1   20   19
 0.1055864963910555    1    1   20   20
 -0.000236899694225912    1    1   21    1
 3.996500675380667e-07    1    1   21    2
 -0.0001199230512139759    1    1   21    3
 0.0004746597425337347    1    1   21    4
 1.601393015662018e-05    1    1   21    5
 -0.0005715597072682335    1    1   21    6
 -2.693410632007187e-05    1    1   21    7
 -5.445077660479993e-05    1    1   21    8
 0.0004568972773541202    1    1   21    9
 -8.429718670556092e-05    1    1   21   10
 -4.50278072202881e-05    1    1   21   11
 8.097381369598811e-05    1    1   21   12
 4.379726614280379e-05    1    1   21   13
 -6.404649416397833e-06    1    1   21   14
 -1.892396949969289e-05    1    1   21   15
 -3.959165166046795e-05    1    1   21   16
 -2.087617548784557e-05    1    1   21   17
 5.824792950403564e-06    1    1   21   18
 1.279278499375632e-05    1    1   21   19
 0.0003974069764538584    1    1   21   20
 0.1216085667857315    1    1   21   21
 0.0004256843409777117    1    1   22    1
 2.456499193357375e-05    1    1   22    2
 3.871817994933536e-05    1    1   22    3
 0.0007243215268086696    1    1   22    4
 0.0002700349633565104    1    1   22    5
 0.0002139652329512958    1    1   22    6
 3.0344915845934e-05    1    1   22    7
 0.0001076625480806518    1    1   22    8
 -0.001430079455708731    1    1   22    9
 -0.0003258030476652044    1    1   22   10
 -0.0007170614268882975    1    1   22   11
 -0.0001996021552491043    1    1   22   12
 -1.753437611050492e-05    1    1   22   13
 -4.435740896223452e-05    1    1   22   14
 5.422410542840619e-05    1    1   22   15
 3.659685126418325e-05    1    1   22   16
 -4.410200884809215e-06    1    1   22   17
 -5.397533466711424e-05    1    1   22   18
 9.254110963749409e-07    1    1   22   19
 -6.172216740756562e-06    1    1   22   20
 -2.191449847681315e-05    1    1   22   21
 0.1781733801811342    1    1   22   22
 0.005581354240926914    1    1   23    1
 -9.662071550288226e-06    1    1   23    2
 3.373368858938663e-05    1    1   23    3
 0.0007544261821244417    1    1   23    4
 -0.002511744894496648    1    1   23    5
 0.0001826571526259075    1    1   23    6
 0.0001320500398019157    1    1   23    7
 -0.0007568254391541893    1    1   23    8
 0.000657285047346955    1    1   23    9
 -0.0006411389501569768    1    1   23   10
 -0.000173245353557762    1    1   23   11
 -0.002510374627381405    1    1   23   12
 0.001352466453737273    1    1   23   13
 0.0002007763215706705    1    1   23   14
 0.0002102153143176815    1    1   23   15
 -0.000355603851765726    1    1   23   16
 1.012585640245312e-05    1    1   23   17
 0.0001844163762076377    1    1   23   18
 -7.019336660447656e-06    1    1   23   19
 -3.421031579396955e-06    1    1   23   20
 -0.0002003316369234205    1    1   23   21
 0.001353839273837938    1    1   23   22
 0.3241752645140766    1    1   23   23
 -0.0004045327404940634    1    1   24    1
 -0.0003302752466175106    1    1   24    2
 -2.298516398592748e-05    1    1   24    3
 -4.537066090047362e-06    1    1   24    4
 1.498517747500058e-05    1    1   24    5
 5.137674685092716e-05    1    1   24    6
 0.0003280532600929453    1    1   24    7
 -6.530711279600655e-05    1    1   24    8
 4.599813116150923e-05    1    1   24    9
 -0.0001423488807840025    1    1   24   10
 -1.017246750317216e-05    1    1   24   11
 -3.766013413806063e-05    1    1   24   12
 -2.88909858804158e-05    1    1   24   13
 -2.736917640422769e-05    1    1   24   14
 -0.0001648322913919962    1    1   24   15
 -0.0002668158263857644    1    1   24   16
 0.0001561297013194414    1    1   24   17
 1.045899292496008e-05    1    1   24   18
 -2.623928007178017e-05    1    1   24   19
 -3.520293927118808e-05    1    1   24   20
 -3.992321853246527e-06    1    1   24   21
 -4.033321890395611e-06    1    1   24   22
 -0.0001348018987477156    1    1   24   23
 0.1016101487496828    1    1   24   24
 -0.0007994795349225313    2    1    1    1
 7.288171658709448e-06    2    1    2    1
 -0.0008928805750361599    2    1    2    2
 -3.389609658003545e-06    2    1    3    1
 3.469360111354751e-08    2    1    3    2
 3.80471766409771e-05    2    1    3    3
 6.975760501682401e-06    2    1    4    1
 1.721845903153359e-06    2    1    4    2
 -3.593906577856364e-07    2    1    4    3
 -4.763973015769149e-05    2    1    4    4
 4.132052068908894e-06    2    1    5    1
 -6.830111976574048e-07    2    1    5    2
 -7.279677304959274e-08    2    1    5    3
 -1.351294429415178e-06    2    1    5    4
 -0.0001041046996328597    2    1    5    5
 8.376772818528907e-07    2    1    6    1
 2.976669061433333e-06    2    1    6    2
 -3.22949846451378e-06    2    1    6    3
 6.270572278072186e-07    2    1    6    4
 -2.326188198437253e-07    2    1    6    5
 0.0001052731502019804    2    1    6    6
 -1.162138862826035e-06    2    1    7    1
 8.194812849384773e-07    2    1    7    2
 -2.698978781596406e-07    2    1    7    3
 3.032949655568828e-08    2    1    7    4
 -2.824616349188735e-08    2    1    7    5
 1.212998393995474e-07    2    1    7    6
 1.850594954392667e-05    2    1    7    7
 -9.288877863417465e-06    2    1    8    1
 -2.375858662200557e-06    2    1    8    2
 9.620936672712097e-08    2    1    8    3
 1.690848516335759e-08    2    1    8    4
 -2.981000917764078e-07    2    1    8    5
 -5.509704561344733e-07    2    1    8    6
 2.482356374344758e-09    2    1    8    7
 0.0001197869385723911    2    1    8    8
 3.504606990508762e-05    2    1    9    1
 9.818184983051458e-07    2    1    9    2
 -1.908984757963973e-06    2    1    9    3
 1.692951309619027e-06    2    1    9    4
 1.18756668000833e-06    2    1    9    5
 1.705744601429887e-05    2    1    9    6
 4.563144624232441e-07    2    1    9    7
 -2.634383860429264e-07    2    1    9    8
 -7.933016970789907e-05    2    1    9    9
 -3.095102205093629e-05    2    1   10    1
 -1.553008622993011e-06    2    1   10    2
 1.91534516661976e-07    2    1   10    3
 1.32913383280176e-07    2    1   10    4
 1.491334424588914e-06    2    1   10    5
 -8.390691471400394e-07    2    1   10    6
 -1.450123407551999e-07    2    1   10    7
 -2.504292023734331e-06    2    1   10    8
 -6.411631137340273e-06    2    1   10    9
 0.0002272823106568781    2    1   10   10
 1.642935493206654e-06    2    1   11    1
 1.694913812243726e-07    2    1   11    2
 -6.582760511615601e-08    2    1   11    3
 2.888598992946236e-06    2    1   11    4
 1.184891354921829e-07    2    1   11    5
 4.324106680871337e-07    2    1   11    6
 -8.921641113950016e-09    2    1   11    7
 -8.416172620250307e-09    2    1   11    8
 -1.056606029529535e-06    2    1   11    9
 1.114681518641505e-08    2    1   11   10
 -2.663826129936713e-06    2    1   11   11
 3.64415106480703e-06    2    1   12    1
 2.395727554463959e-06    2    1   12    2
 1.045651928452507e-08    2    1   12    3
 2.754063407302629e-07    2    1   12    4
 7.704510591510894e-07    2    1   12    5
 8.330083170987238e-08    2    1   12    6
 2.420689380494953e-08    2    1   12    7
 1.034558453049296e-06    2    1   12    8
 -8.940158900668284e-07    2    1   12    9
 -2.033557134757227e-06    2    1   12   10
 -9.813953534225365e-08    2    1   12   11
 -6.8130547393878e-05    2    1   12   12
 -1.069273987933777e-06    2    1   13    1
 -2.604673266469914e-07    2    1   13    2
 -4.129906119831637e-08    2    1   13    3
 7.677163848905674e-08    2    1   13    4
 1.885129445810883e-07    2    1   13    5
 9.508768779494952e-09    2    1   13    6
 -4.694195317387285e-09    2    1   13    7
 6.946892837180989e-06    2    1   13    8
 -2.677969315419081e-07    2    1   13    9
 -3.111375989653033e-06    2    1   13   10
 -3.820017450697879e-08    2    1   13   11
 -7.158141904359654e-07    2    1   13   12
 -6.613196449780116e-06    2    1   13   13
 -1.219038487523671e-06    2    1   14    1
 -4.167795533836809e-05    2    1   14    2
 -4.785786404493655e-08    2    1   14    3
 1.353065808049817e-07    2    1   14    4
 6.365391279185639e-08    2    1   14    5
 1.67930582334667e-07    2    1   14    6
 7.543573059112403e-08    2    1   14    7
 7.01473178143949e-07    2    1   14    8
 4.49422392034524e-08    2    1   14    9
 -1.753106877413623e-06    2    1   14   10
 -8.607219428083618e-08    2    1   14   11
 3.266391128866254e-07    2    1   14   12
 1.201424513575383e-06    2    1   14   13
 -0.0001154916929884506    2    1   14   14
 -1.28575526640463e-06    2    1   15    1
 -2.712401635697005e-05    2    1   15    2
 -4.844873427743686e-07    2    1   15    3
 5.940804547190194e-07    2    1   15    4
 4.601682776869773e-08    2    1   15    5
 3.479132170488015e-06    2    1   15    6
 -5.413078777254928e-07    2    1   15    7
 4.521740878950447e-07    2    1   15    8
 2.187912221348753e-06    2    1   15    9
 -3.195223758767883e-05    2    1   15   10
 1.789799666618168e-07    2    1   15   11
 3.754470016924066e-07    2    1   15   12
 6.18853004145812e-07    2    1   15   13
 5.878865937262427e-06    2    1   15   14
 0.0001801159754780931    2    1   15   15
 -5.609309705267433e-06    2    1   16    1
 -9.984984326667128e-06    2    1   16    2
 1.4352977035608e-06    2    1   16    3
 -4.980669918875318e-07    2    1   16    4
 -5.012893864045127e-08    2    1   16    5
 -9.210213501703726e-06    2    1   16    6
 9.857655140509827e-07    2    1   16    7
 1.132980044384745e-06    2    1   16    8
 -9.854345903750611e-07    2    1   16    9
 9.205390709598714e-07    2    1   16   10
 -8.780335321722828e-08    2    1   16   11
 -3.367827124720194e-08    2    1   16   12
 1.502226323875517e-07    2    1   16   13
 1.198501341016779e-07    2    1   16   14
 -3.696902126273636e-06    2    1   16   15
 0.0001333275385765643    2    1   16   16
 1.487852532760747e-06    2    1   17    1
 -3.951753414232824e-07    2    1   17    2
 -4.773063348859612e-07    2    1   17    3
 1.856999624268808e-07    2    1   17    4
 8.829122720580562e-09    2    1   17    5
 8.515415128522429e-07    2    1   17    6
 1.685141952885798e-06    2    1   17    7
 -1.276418268151101e-07    2    1   17    8
 9.543187057311361e-07    2    1   17    9
 -2.322202857813555e-07    2    1   17   10
 -9.704924839311888e-09    2    1   17   11
 1.384244821378225e-08    2    1   17   12
 4.216162169412796e-09    2    1   17   13
 -6.073241480414013e-07    2    1   17   14
 3.459850744745998e-06    2    1   17   15
 -7.639501215333017e-06    2    1   17   16
 5.400831854639105e-06    2    1   17   17
 -2.5377352901734e-06    2    1   18    1
 -5.671607145570985e-08    2    1   18    2
 4.374980323337315e-08    2    1   18    3
 9.543844471312739e-11    2    1   18    4
 -5.596250777819595e-10    2    1   18    5
 -8.269895690631409e-08    2    1   18    6
 -3.81322972768388e-09    2    1   18    7
 8.517534971585543e-06    2    1   18    8
 1.66426234933825e-08    2    1   18    9
 -3.234952453591406e-06    2    1   18   10
 3.363417869267283e-09    2    1   18   11
 -1.123097565701847e-08    2    1   18   12
 8.761530563000766e-07    2    1   18   13
 1.878715429538866e-05    2    1   18   14
 1.366870195980614e-06    2    1   18   15
 4.578489154690405e-07    2    1   18   16
 2.645374868583008e-08    2    1   18   17
 7.585362181221024e-05    2    1   18   18
 -3.154339072903736e-07    2    1   19    1
 1.687212347765335e-05    2    1   19    2
 -4.01648019363411e-07    2    1   19    3
 -1.578171847984449e-07    2    1   19    4
 8.640005037155093e-08    2    1   19    5
 -2.47542786989587e-07    2    1   19    6
 -3.283510787815723e-07    2    1   19    7
 1.580765318799594e-07    2    1   19    8
 -2.567494700373237e-07    2    1   19    9
 -2.884185986772241e-07    2    1   19   10
 -1.796369990352781e-07    2    1   19   11
 -2.784558998213919e-07    2    1   19   12
 1.589367714247068e-07    2    1   19   13
 2.429014995419747e-06    2    1   19   14
 2.291065175176895e-06    2    1   19   15
 -6.354324086371144e-07    2    1   19   16
 -2.339698289524575e-06    2    1   19   17
 3.777114104818085e-07    2    1   19   18
 -0.0002410406522929748    2    1   19   19
 2.389888446383316e-08    2    1   20    1
 -2.537614251986679e-06    2    1   20    2
 2.250871598939167e-07    2    1   20    3
 9.476056695627418e-08    2    1   20    4
 6.56426519838719e-10    2    1   20    5
 3.753555741711816e-07    2    1   20    6
 -4.250103205386738e-07    2    1   20    7
 8.543590120889981e-08    2    1   20    8
 -4.052800663940911e-07    2    1   20    9
 -8.284411488007665e-09    2    1   20   10
 4.312387872446779e-08    2    1   20   11
 1.18807135384789e-08    2    1   20   12
 3.900837827087316e-08    2    1   20   13
 -2.646873883558007e-07    2    1   20   14
 -9.327319736578429e-08    2    1   20   15
 2.180020824078992e-07    2    1   20   16
 -3.624615615151612e-07    2    1   20   17
 7.585205895213961e-08    2    1   20   18
 2.45765058431167e-07    2    1   20   19
 2.606938794939775e-05    2    1   20   20
 9.055147169508744e-07    2    1   21    1
 -5.804334141327738e-07    2    1   21    2
 3.35688597979884e-07    2    1   21    3
 2.0020922586907e-07    2    1   21    4
 -1.808603437918604e-08    2    1   21    5
 4.494625127011852e-08    2    1   21    6
 -6.689092314482384e-08    2    1   21    7
 -8.685828851752199e-08    2    1   21    8
 -5.699242976754795e-07    2    1   21    9
 -1.385696277797089e-07    2    1   21   10
 4.529095764415479e-07    2    1   21   11
 -9.650450603038479e-08    2    1   21   12
 -3.149102429868717e-08    2    1   21   13
 -7.904796641631645e-08    2    1   21   14
 -1.610331516339257e-07    2    1   21   15
 6.047222291042963e-08    2    1   21   16
 -1.15180985069328e-07    2    1   21   17
 1.051819077559404e-08    2    1   21   18
 8.152319448297489e-09    2    1   21   19
 1.459160420998119e-07    2    1   21   20
 1.519206412817683e-05    2    1   21   21
 -4.402892400907248e-07    2    1   22    1
 1.591575669531672e-07    2    1   22    2
 5.415385991208475e-08    2    1   22    3
 -2.090051381999985e-06    2    1   22    4
 -7.359393738225393e-08    2    1   22    5
 -3.540117877566166e-07    2    1   22    6
 2.276096336554001e-10    2    1   22    7
 -5.061162448655807e-08    2    1   22    8
 2.014352328860639e-06    2    1   22    9
 6.299734075145821e-07    2    1   22   10
 3.403302471246888e-07    2    1   22   11
 2.663120966715057e-07    2    1   22   12
 5.459185342209167e-08    2    1   22   13
 1.221707929220841e-07    2    1   22   14
 8.261801366467289e-08    2    1   22   15
 -2.743190668640042e-08    2    1   22   16
 -2.256838636739548e-08    2    1   22   17
 -7.456998910234835e-08    2    1   22   18
 8.67496963027219e-09    2    1   22   19
 -4.168503269761831e-08    2    1   22   20
 -1.081693751022565e-07    2    1   22   21
 -6.810450447615742e-05    2    1   22   22
 -1.335736781381884e-05    2    1   23    1
 3.913582694676902e-07    2    1   23    2
 -2.931669430167474e-07    2    1   23    3
 -4.350683803168292e-07    2    1   23    4
 5.663614929873474e-06    2    1   23    5
 4.653614341052347e-07    2    1   23    6
 -1.861873472318706e-07    2    1   23    7
 2.982381756289033e-07    2    1   23    8
 2.474848764940254e-06    2    1   23    9
 -2.167078283702912e-06    2    1   23   10
 2.660483939422421e-07    2    1   23   11
 5.19015587949807e-06    2    1   23   12
 -1.269964286389212e-06    2    1   23   13
 -7.284129148182992e-07    2    1   23   14
 5.426582274400041e-07    2    1   23   15
 -3.276881451651685e-07    2    1   23   16
 2.760737490838899e-07    2    1   23   17
 -1.34666337117254e-07    2    1   23   18
 -2.668180999103979e-08    2    1   23   19
 2.038333203781022e-08    2    1   23   20
 3.561050883480953e-07    2    1   23   21
 -1.588188800621392e-06    2    1   23   22
 -0.0002496280206385375    2    1   23   23
 1.175299804004868e-06    2    1   24    1
 3.839041141559896e-06    2    1   24    2
 -1.691187615133203e-07    2    1   24    3
 3.942627150014287e-09    2    1   24    4
 -1.849315889647238e-09    2    1   24    5
 6.773205783196368e-08    2    1   24    6
 -2.916934826294142e-07    2    1   24    7
 -1.436731855093414e-07    2    1   24    8
 -8.926652694229725e-08    2    1   24    9
 2.12840903558875e-07    2    1   24   10
 -5.296078445775658e-08    2    1   24   11
 2.168827976225621e-08    2    1   24   12
 -3.121013730766141e-08    2    1   24   13
 5.991432460122574e-07    2    1   24   14
 -2.018865500678035e-06    2    1   24   15
 7.158135548337159e-07    2    1   24   16
 1.337548849985353e-06    2    1   24   17
 2.770171871076126e-08    2    1   24   18
 -6.346377937084294e-06    2    1   24   19
 -1.837449711251225e-07    2    1   24   20
 -8.301195628153896e-08    2    1   24   21
 1.224705288027133e-08    2    1   24   22
 1.630438728374387e-07    2    1   24   23
 -5.804943289810253e-05    2    1   24   24
 0.1373829031903547    2    2    1    1
 -0.000892880575036156    2    2    2    1
 0.63236940256928    2    2    2    2
 -4.076400960867997e-05    2    2    3    1
 4.200335699099572e-05    2    2    3    2
 0.1059977089189817    2    2    3    3
 0.0002382479129883116    2    2    4    1
 -0.000475962930809575    2    2    4    2
 -0.0001110811040854566    2    2    4    3
 0.09216428427097414    2    2    4    4
 2.386617562315403e-05    2    2    5    1
 0.000184558497747759    2    2    5    2
 1.76413151997902e-05    2    2    5    3
 0.0002224493383159091    2    2    5    4
 0.08446507370980864    2    2    5    5
 0.0005467661930284698    2    2    6    1
 -0.0008928805507550147    2    2    6    2
 -0.0005354814628942514    2    2    6    3
 0.0002382479178473779    2    2    6    4
 3.680192847483186e-06    2    2    6    5
 0.1373829031907207    2    2    6    6
 1.785227733103558e-05    2    2    7    1
 -0.0001614262408881328    2    2    7    2
 -0.0003849270574308289    2    2    7    3
 -2.775466755268052e-05    2    2    7    4
 6.633986071527917e-06    2    2    7    5
 -0.0001688111275180707    2    2    7    6
 0.1212820140527036    2    2    7    7
 -0.000657039332543363    2    2    8    1
 -0.0001461427836215718    2    2    8    2
 1.086248417446175e-05    2    2    8    3
 1.725264953086959e-05    2    2    8    4
 -2.644629192833827e-05    2    2    8    5
 -8.965865372025442e-05    2    2    8    6
 1.7300904722235e-05    2    2    8    7
 0.178315725992271    2    2    8    8
 0.0001870277228209822    2    2    9    1
 -4.863619730772993e-05    2    2    9    2
 -0.0003602479722169975    2    2    9    3
 0.0006335542587024843    2    2    9    4
 -8.202892716120984e-06    2    2    9    5
 0.0001870277248700807    2    2    9    6
 5.696406607828207e-05    2    2    9    7
 -1.158352729723146e-05    2    2    9    8
 0.1216826516852409    2    2    9    9
 0.001724049573758209    2    2   10    1
 0.001412564778907473    2    2   10    2
 3.562629905560237e-05    2    2   10    3
 4.763973173501398e-05    2    2   10    4
 0.0001267134246431201    2    2   10    5
 -0.0001492979239142422    2    2   10    6
 3.532234382593392e-05    2    2   10    7
 -0.0007648374541384673    2    2   10    8
 -0.0005637817116751492    2    2   10    9
 0.2036744422970785    2    2   10   10
 -2.447210061888226e-05    2    2   11    1
 1.254601264725673e-05    2    2   11    2
 -0.000178600105186995    2    2   11    3
 -6.962177231642551e-05    2    2   11    4
 -1.870072130935439e-05    2    2   11    5
 8.606487398955424e-05    2    2   11    6
 1.301192469908464e-05    2    2   11    7
 -1.187887314722663e-05    2    2   11    8
 -0.0001380399696694761    2    2   11    9
 7.373659153798593e-06    2    2   11   10
 0.08049232399621091    2    2   11   11
 -0.0003634513034297153    2    2   12    1
 -0.000766877015538498    2    2   12    2
 -3.594297464799289e-07    2    2   12    3
 2.243506635600943e-06    2    2   12    4
 -0.0002597872411407917    2    2   12    5
 -9.660650063451865e-07    2    2   12    6
 -5.721337098841101e-07    2    2   12    7
 -0.0001681673434304304    2    2   12    8
 2.744734248243618e-05    2    2   12    9
 -0.0002101516561049523    2    2   12   10
 -2.013527011624691e-06    2    2   12   11
 0.1018790263917131    2    2   12   12
 -0.0001688111298226219    2    2   13    1
 -0.0001614263184433177    2    2   13    2
 -2.595652230551492e-05    2    2   13    3
 -2.775466768728504e-05    2    2   13    4
 -1.781709876146312e-05    2    2   13    5
 1.785227722852903e-05    2    2   13    6
 -3.651455146723466e-06    2    2   13    7
 0.001588612790087962    2    2   13    8
 5.696406599062736e-05    2    2   13    9
 -0.0004945772864197332    2    2   13   10
 8.912228617463312e-07    2    2   13   11
 -0.0002530469711732969    2    2   13   12
 0.1212820140533813    2    2   13   13
 -0.0002648935079092386    2    2   14    1