 &FCI NORB=  24,NELEC=24,MS2=0,
  ORBSYM=1,1,1,1,1,1,1,1,1,1,1,1,1,1,1,1,1,1,1,1,1,1,1,1,
  ISYM=1,
 &END
 0.2066558702392045    1    1    1    1
 0.1819786014075045    1    1    2    2
 0.1819795899094461    1    1    3    3
 1.197148021115594e-05    1    1    4    1
 0.1653537898786701    1    1    4    4
 0.1653579104967338    1    1    5    5
 0.0376502139620984    1    1    6    1
 5.779441015924328e-06    1    1    6    4
 0.1857464341654546    1    1    6    6
 3.104570940009113e-06    1    1    7    3
 0.1481305731028175    1    1    7    7
 3.854700047834468e-05    1    1    8    2
 0.1784898084051975    1    1    8    8
 0.03519196802973822    1    1    9    2
 2.171678807213486e-05    1    1    9    8
 0.2004723707371828    1    1    9    9
 0.03519103740182121    1    1   10    3
 4.29662736758582e-06    1    1   10    7
 0.2004673978801493    1    1   10   10
 -0.01921078026689584    1    1   11    5
 0.1699288168536013    1    1   11   11
 2.076348480044895e-06    1    1   12    1
 -0.01920894109656204    1    1   12    4
 9.112478853622909e-06    1    1   12    6
 0.1699307999425551    1    1   12   12
 -0.004319621464038822    1    1   13    2
 -3.349361593952844e-05    1    1   13    8
 -0.02403167148754855    1    1   13    9
 0.1709169200681259    1    1   13   13
 0.004318838484304085    1    1   14    3
 5.888407343335178e-06    1    1   14    7
 0.02403641649259361    1    1   14   10
 0.1709197874425441    1    1   14   14
 3.309983057941261e-05    1    1   15    1
 -0.0161115929469975    1    1   15    4
 2.221145360964516e-05    1    1   15    6
 0.02387038132076546    1    1   15   12
 0.1996544171298685    1    1   15   15
 0.01611030311000247    1    1   16    5
 -0.02386929183828469    1    1   16   11
 0.1996520265200984    1    1   16   16
 -0.002920628122003263    1    1   17    1
 -1.162143384131689e-06    1    1   17    4
 -0.02449172423790477    1    1   17    6
 -8.002257635687966e-06    1    1   17   12
 -1.645528253112276e-05    1    1   17   15
 0.1816481366804288    1    1   17   17
 -2.426744064286997e-06    1    1   18    5
 1.102861193747265e-05    1    1   18   11
 -1.965682290839578e-05    1    1   18   16
 0.1487920588133244    1    1   18   18
 -3.865792957819447e-06    1    1   19    2
 0.02401179380803753    1    1   19    8
 -2.373386485905301e-05    1    1   19    9
 -4.44144401262267e-07    1    1   19   13
 0.1826562089884367    1    1   19   19
 -0.002810670415579586    1    1   20    2
 2.66364842137299e-05    1    1   20    8
 0.01667330174356835    1    1   20    9
 -0.02043115099725626    1    1   20   13
 8.603598504828419e-07    1    1   20   19
 0.1685368042225666    1    1   20   20
 -0.002810970574858452    1    1   21    3
 6.084621530355345e-06    1    1   21    7
 0.01666777840177379    1    1   21   10
 0.02043323135963879    1    1   21   14
 0.1685386516183108    1    1   21   21
 2.404781732906366e-05    1    1   22    1
 0.002320507698021992    1    1   22    4
 2.228557532635766e-05    1    1   22    6
 0.004965782472298614    1    1   22   12
 0.03671408210566644    1    1   22   15
 -2.279676711065164e-05    1    1   22   17
 0.1883000439488323    1    1   22   22
 0.002316838832569163    1    1   23    5
 0.004961716908362107    1    1   23   11
 -0.03671266716123749    1    1   23   16
 1.313962917167538e-05    1    1   23   18
 0.1882971174142826    1    1   23   23
 -1.668952875494897e-06    1    1   24    2
 0.004447071043756428    1    1   24    8
 -8.848251813100205e-06    1    1   24    9
 -2.315195836960059e-06    1    1   24   13
 0.03634197483078697    1    1   24   19
 -8.403829149903827e-06    1    1   24   20
 0.2160019349983812    1    1   24   24
 0.05097916163657017    2    1    2    1
 -0.03593212391456158    2    1    4    2
 0.03592588661212087    2    1    5    3
 -0.01523045356897238    2    1    6    2
 0.03277861703809198    2    1    7    5
 1.932756699084455e-05    2    1    8    1
 0.04045944877401406    2    1    8    4
 3.758221048227482e-05    2    1    8    6
 0.01837676779220282    2    1    9    1
 0.00758509982452338    2    1    9    4
 0.04557028211331583    2    1    9    6
 -0.007614487916126426    2    1   10    5
 -0.00964123623635544    2    1   11    3
 0.0330864482943849    2    1   11    7
 -0.0245418084429104    2    1   11   10
 0.009642628375588195    2    1   12    2
 -0.038152830090221    2    1   12    8
 0.02458138209542744    2    1   12    9
 -0.002135059175578552    2    1   13    1
 -0.003612458576239598    2    1   13    4
 -0.01185542043372191    2    1   13    6
 0.02553662738171477    2    1   13   12
 -0.003603888761372788    2    1   14    5
 0.02553619214159874    2    1   14   11
 0.008273407128974879    2    1   15    2
 0.006630184445783477    2    1   15    8
 0.02402209071950857    2    1   15    9
 -0.02446551736365539    2    1   15   13
 0.008250519653276034    2    1   16    3
 0.006840655923138421    2    1   16    7
 0.0239966938443625    2    1   16   10
 0.02444817948021879    2    1   16   14
 0.008396885532228598    2    1   17    2
 5.424697487730625e-06    2    1   17    8
 0.007607762446305864    2    1   17    9
 0.03658363810968641    2    1   17   13
 -0.0001406426405960954    2    1   18    3
 -1.384156800578271e-06    2    1   18    7
 0.006803773914585128    2    1   18   10
 -0.03532806160661917    2    1   18   14
 -2.94841815118711e-06    2    1   19    1
 0.003451726751616239    2    1   19    4
 -1.52548567137849e-06    2    1   19    6
 -0.01242880797661067    2    1   19   12
 -0.04657846523543231    2    1   19   15
 6.558792024880509e-06    2    1   19   17
 -0.001444795356809829    2    1   20    1
 0.004587361751769605    2    1   20    4
 0.003409433417708066    2    1   20    6
 -0.003645231796940991    2    1   20   12
 -0.009434075583736472    2    1   20   15
 -0.04270901625994891    2    1   20   17
 -0.00457923051666176    2    1   21    5
 0.003640847347504842    2    1   21   11
 -0.00943530256258697    2    1   21   16
 0.03181571502350265    2    1   21   18
 0.001405038296011609    2    1   22    2
 0.00812216135541529    2    1   22    8
 0.008890471251415495    2    1   22    9
 -0.01048757151239098    2    1   22   13
 0.01727478027051075    2    1   22   19
 0.03646806844385854    2    1   22   20
 -0.001393494997821199    2    1   23    3
 0.0003444337680107768    2    1   23    7
 -0.008870180234749659    2    1   23   10
 -0.01046862219431384    2    1   23   14
 -0.0364464421359977    2    1   23   21
 -2.135854238041298e-06    2    1   24    1
 -0.0008649005745507169    2    1   24    4
 -2.00363760540882e-06    2    1   24    6
 -0.002814622938385485    2    1   24   12
 -0.01974684355686763    2    1   24   15
 1.818955802015282e-06    2    1   24   17
 -0.05205394665191439    2    1   24   22
 0.1819786014075045    2    2    1    1
 0.1881130524948303    2    2    2    2
 0.156403001323074    2    2    3    3
 -0.01855252943624195    2    2    4    1
 0.1661380142565135    2    2    4    4
 0.1632863320308626    2    2    5    5
 0.01506462339911638    2    2    6    1
 0.01451642275188325    2    2    6    4
 0.1701026468172396    2    2    6    6
 0.01272627353992766    2    2    7    3
 0.1535696469492254    2    2    7    7
 -0.01851021633276731    2    2    8    2
 0.1737913923105942    2    2    8    8
 0.01435657405531491    2    2    9    2
 -0.001775095477388698    2    2    9    8
 0.1885090533272167    2    2    9    9
 0.01788393894552452    2    2   10    3
 -0.0131596373568234    2    2   10    7
 0.164429113369564    2    2   10   10
 0.004072410676508948    2    2   11    5
 0.166328776835279    2    2   11   11
 0.006321124300260999    2    2   12    1
 -0.02774373232121448    2    2   12    4
 0.007553446280081178    2    2   12    6
 0.166038188905832    2    2   12   12
 0.003557126673084239    2    2   13    2
 -0.01668429990275165    2    2   13    8
 -0.0118525412913141    2    2   13    9
 0.1661783284656171    2    2   13   13
 0.0008075215919189065    2    2   14    3
 0.01280677563278099    2    2   14    7
 0.008379776520958448    2    2   14   10
 0.1682351678296278    2    2   14   14
 0.005208676515461805    2    2   15    1
 -0.002803399934676945    2    2   15    4
 0.01102075296752808    2    2   15    6
 0.01152712284343468    2    2   15   12
 0.1890809912569136    2    2   15   15
 0.01168088775636436    2    2   16    5
 -0.009452674588670926    2    2   16   11
 0.1657993892306768    2    2   16   16
 0.003521948367911676    2    2   17    1
 -0.00399335920257103    2    2   17    4
 -0.01262224343732395    2    2   17    6
 0.01620958088637812    2    2   17   12
 -0.0007003478706663548    2    2   17   15
 0.1756777931249446    2    2   17   17
 -0.001100192729245879    2    2   18    5
 -0.01319696264279923    2    2   18   11
 -0.01409544116673418    2    2   18   16
 0.1553255919402527    2    2   18   18
 -0.002368460022376645    2    2   19    2
 0.0133460051317008    2    2   19    8
 -0.01051370555157115    2    2   19    9
 0.007414724780914131    2    2   19   13
 0.1711843654247525    2    2   19   19
 -0.007005346945825578    2    2   20    2
 0.004045337787894659    2    2   20    8
 0.002881615746835813    2    2   20    9
 -0.02818137478570051    2    2   20   13
 0.01609371072581043    2    2   20   19
 0.1702645707705999    2    2   20   20
 -0.003288606654533862    2    2   21    3
 -0.001225727664839509    2    2   21    7
 0.01115802886418804    2    2   21   10
 -0.004414553506666488    2    2   21   14
 0.1646332386017418    2    2   21   21
 0.0004590262734040656    2    2   22    1
 0.006697224890864816    2    2   22    4
 0.002986282475828406    2    2   22    6
 -0.003543755148866856    2    2   22   12
 0.01369581591716668    2    2   22   15
 -0.01934252566001299    2    2   22   17
 0.1922363620613671    2    2   22   22
 0.002749943993710584    2    2   23    5
 0.001602362779801077    2    2   23   11
 -0.01875177369782495    2    2   23   16
 -0.01192708595140165    2    2   23   18
 0.1607152500649302    2    2   23   23
 -0.0002504366225773334    2    2   24    2
 -0.002050195273364976    2    2   24    8
 -0.005332864208796609    2    2   24    9
 0.006700980926940161    2    2   24   13
 0.01455170700037693    2    2   24   19
 -0.01795516730158829    2    2   24   20
 0.1878722546996862    2    2   24   24
 0.05097603002249246    3    1    3    1
 0.03592231563603918    3    1    4    3
 0.03592382028682237    3    1    5    2
 -0.01525060483424816    3    1    6    3
 1.709624849796382e-06    3    1    7    1
 -0.03277596087883425    3    1    7    4
 1.477443438171631e-05    3    1    7    6
 0.04044472147095302    3    1    8    5
 -0.007654352059571754    3    1    9    5
 0.01837523111433704    3    1   10    1
 -0.007599449039448763    3    1   10    4
 0.0455712599921367    3    1   10    6
 -0.009640828470745776    3    1   11    2
 -0.03820188761567252    3    1   11    8
 -0.0244955975784275    3    1   11    9
 -0.009640609106165229    3    1   12    3
 -0.03308608652279328    3    1   12    7
 -0.02453409681641661    3    1   12   10
 0.003601648806722133    3    1   13    5
 -0.02552753846257024    3    1   13   11
 0.002134427085221438    3    1   14    1
 -0.003604375896393608    3    1   14    4
 0.01185719178699331    3    1   14    6
 0.02552706878388166    3    1   14   12
 -0.008230581444647254    3    1   15    3
 0.006837949688877352    3    1   15    7
 -0.02396179825818453    3    1   15   10
 -0.02445369594981384    3    1   15   14
 0.008250612805467943    3    1   16    2
 -0.006583197772923184    3    1   16    8
 0.02399996705392591    3    1   16    9
 -0.02447044314827791    3    1   16   13
 0.008402148305913947    3    1   17    3
 -2.655167840081738e-06    3    1   17    7
 0.007622638155992528    3    1   17   10
 -0.03657002188324031    3    1   17   14
 0.0001370169530533863    3    1   18    2
 -7.348001351892893e-06    3    1   18    8
 -0.006817085771522688    3    1   18    9
 -0.03531086809064164    3    1   18   13
 0.003448276013662055    3    1   19    5
 -0.01242553538665603    3    1   19   11
 0.04656267343190242    3    1   19   16
 -2.953345785130547e-05    3    1   19   18
 -0.004575427586250048    3    1   20    5
 0.00363529664336857    3    1   20   11
 -0.00947069272551903    3    1   20   16
 -0.03179805588799496    3    1   20   18
 -0.001445530675653532    3    1   21    1
 -0.004582217377253957    3    1   21    4
 0.003410492108163067    3    1   21    6
 0.003641003615922444    3    1   21   12
 0.009450864483030679    3    1   21   15
 -0.04271754508060858    3    1   21   17
 -0.001379049397908685    3    1   22    3
 -0.0003471943519933718    3    1   22    7
 -0.008843173797851158    3    1   22   10
 -0.01045258159385265    3    1   22   14
 -0.0364307832254007    3    1   22   21
 -0.001393326272065847    3    1   23    2
 0.008105505036533145    3    1   23    8
 -0.008879728874832843    3    1   23    9
 0.01045968725028722    3    1   23   13
 0.01726575198093511    3    1   23   19
 -0.03645736424796801    3    1   23   20
 -0.0008662775060186479    3    1   24    5
 -0.002809000568567201    3    1   24   11
 0.01974402598867694    3    1   24   16
 6.560493567581843e-07    3    1   24   18
 -0.05203819844756634    3    1   24   23
 0.01585153431393916    3    2    3    2
 0.01855505604110064    3    2    5    1
 0.001418668752395492    3    2    5    4
 -0.01451067771710832    3    2    6    5
 0.0127233259770113    3    2    7    2
 0.0185221933400076    3    2    8    3
 -1.324403858675742e-05    3    2    8    7
 -0.001792079225574836    3    2    9    3
 -0.01315725850799995    3    2    9    7
 -0.001773278066392169    3    2   10    2
 0.001803502420669308    3    2   10    8
 0.01203457424105222    3    2   10    9
 -0.00631888937098417    3    2   11    1
 -0.01590956197485627    3    2   11    4
 -0.007538600804144155    3    2   11    6
 -0.01590798149990534    3    2   12    5
 -0.0001464005995082509    3    2   12   11
 0.002178373673417133    3    2   13    3
 -0.01279832184432124    3    2   13    7
 -0.001744018673152095    3    2   13   10
 -0.002179282725051799    3    2   14    2
 -0.01665868363706984    3    2   14    8
 0.001759169465450638    3    2   14    9
 0.001028940267742339    3    2   14   13
 0.00444565352362978    3    2   15    5
 0.001021174908811226    3    2   15   11
 0.005183313421616348    3    2   16    1
 -0.004437968682238882    3    2   16    4
 0.01100770212052289    3    2   16    6
 -0.001035812378844584    3    2   16   12
 -0.011603962867516    3    2   16   15
 0.003989145737704681    3    2   17    5
 -0.01621153203048937    3    2   17   11
 -0.00068787844049863    3    2   17   16
 -1.333732151256027e-06    3    2   18    1
 -0.001097939180689813    3    2   18    4
 -2.495597618017609e-06    3    2   18    6
 -0.01319837506472517    3    2   18   12
 0.01409541305117441    3    2   18   15
 -6.097994616223196e-06    3    2   18   17
 0.002362913220013453    3    2   19    3
 -1.488018968745855e-07    3    2   19    7
 0.01049620723732477    3    2   19   10
 0.00741867859791763    3    2   19   14
 -0.001852330762526663    3    2   20    3
 -0.001229439690872597    3    2   20    7
 -0.004139084463047291    3    2   20   10
 0.01628270339448783    3    2   20   14
 -0.001854975590773409    3    2   21    2
 -0.004034038831135422    3    2   21    8
 -0.004133573576439242    3    2   21    9
 -0.01629206447993712    3    2   21   13
 -0.01609324792212874    3    2   21   19
 0.002821578900123516    3    2   21   20
 0.001973429645573942    3    2   22    5
 -0.002580805156706408    3    2   22   11
 0.002537302767756268    3    2   22   16
 -0.01193484549322507    3    2   22   18
 -0.0004446286630128838    3    2   23    1
 0.001971396970898778    3    2   23    4
 -0.002971664937039224    3    2   23    6
 -0.002578141656850402    3    2   23   12
 -0.002535222542692166    3    2   23   15
 0.01932659138880398    3    2   23   17
 0.0157282504034132    3    2   23   22
 0.0002482408704026987    3    2   24    3
 1.056521357686337e-06    3    2   24    7
 0.005329283050335294    3    2   24   10
 0.006699395005178251    3    2   24   14
 0.01794796172825261    3    2   24   21
 0.1819795899094461    3    3    1    1
 0.156403001323074    3    3    2    2
 0.1881136873840121    3    3    3    3
 0.01856223148558367    3    3    4    1
 0.1632772907705968    3    3    4    4
 0.1661315955785911    3    3    5    5
 0.01505552365854264    3    3    6    1
 -0.01451363701818535    3    3    6    4
 0.1701201974227724    3    3    6    6
 -0.01272416611300644    3    3    7    3
 0.153569276584778    3    3    7    7
 0.01854465212653495    3    3    8    2
 0.173801799521121    3    3    8    8
 0.01786675755010321    3    3    9    2
 0.00177882393851828    3    3    9    8
 0.1644265980466207    3    3    9    9
 0.01433808793522311    3    3   10    3
 0.01316432536683103    3    3   10    7
 0.1885013250282239    3    3   10   10
 -0.02774836588991614    3    3   11    5
 0.1660348839687312    3    3   11   11
 -0.006318262283495997    3    3   12    1
 0.004069092712900685    3    3   12    4
 -0.007544093291025171    3    3   12    6
 0.1663289041242293    3    3   12   12
 -0.0008094062100493706    3    3   13    2
 0.01664543700609198    3    3   13    8
 -0.008401083782244977    3    3   13    9
 0.1682218385929885    3    3   13   13
 -0.003556533537999569    3    3   14    3
 -0.01279009164347255    3    3   14    7
 0.01187671677047643    3    3   14   10
 0.1661638157097087    3    3   14   14
 -0.005160302582236528    3    3   15    1
 -0.01168022688301407    3    3   15    4
 -0.01099115484873605    3    3   15    6
 0.009436342952183815    3    3   15   12
 0.1657871901187588    3    3   15   15
 0.002799404625553954    3    3   16    5
 -0.01150736710019961    3    3   16   11
 0.1890666966864656    3    3   16   16
 0.003525089664820889    3    3   17    1
 0.003991625684979087    3    3   17    4
 -0.01261799169558213    3    3   17    6
 -0.01621686324708167    3    3   17   12
 0.0006852389086269479    3    3   17   15
 0.1756835717392145    3    3   17   17
 0.001098455949125165    3    3   18    5
 0.01320750797331807    3    3   18   11
 0.01407811704860016    3    3   18   16
 0.1552957429861725    3    3   18   18
 0.002361300310967523    3    3   19    2
 0.01336581380204481    3    3   19    8
 0.01048632354740778    3    3   19    9
 -0.007411555266192595    3    3   19   13
 0.1711642399778919    3    3   19   19
 -0.003286395321482544    3    3   20    2
 -0.004006582815563239    3    3   20    8
 0.01116388437969232    3    3   20    9
 0.004424025283721489    3    3   20   13
 -0.01609452391840599    3    3   20   19
 0.1646383854015237    3    3   20   20
 -0.007003266074377815    3    3   21    3
 0.00123495929956395    3    3   21    7
 0.002880626072661202    3    3   21   10
 0.0281731555104494    3    3   21   14
 0.1702705624176539    3    3   21   21
 -0.0004285588916664277    3    3   22    1
 0.002754461021414397    3    3   22    4
 -0.002956205646218322    3    3   22    6
 0.001598536224419354    3    3   22   12
 0.01873151344568133    3    3   22   15
 0.01931122982520763    3    3   22   17
 0.1606962199115948    3    3   22   22
 0.006695579503334659    3    3   23    5
 -0.003550426924130861    3    3   23   11
 -0.01367295238798067    3    3   23   16
 0.01193853968557594    3    3   23   18
 0.1922115306028423    3    3   23   23
 0.0002481177368887338    3    3   24    2
 -0.002042368286016333    3    3   24    8
 0.00533004649041142    3    3   24    9
 -0.006705167189946028    3    3   24   13
 0.01455947992969304    3    3   24   19
 0.01793961778565095    3    3   24   20
 0.187859423780193    3    3   24   24
 1.197148021115074e-05    4    1    1    1
 -0.01855252943624195    4    1    2    2
 0.01856223148558367    4    1    3    3
 0.02176149992161184    4    1    4    1
 -0.001512590510756433    4    1    4    4
 0.001504399628864928    4    1    5    5
 4.857587396478935e-06    4    1    6    1
 -0.01734355962153298    4    1    6    4
 1.770253826187938e-05    4    1    6    6
 -0.01518389504628447    4    1    7    3
 -2.541923269468692e-06    4    1    7    7
 0.02166981165990814    4    1    8    2
 8.440552796206455e-06    4    1    8    8
 0.002420695417618032    4    1    9    2
 0.002022804218907138    4    1    9    8
 -0.01379969098625989    4    1    9    9
 -0.002424143628768919    4    1   10    3
 0.0156807822581926    4    1   10    7
 0.01381593473799201    4    1   10   10
 -0.01880639452379547    4    1   11    5
 -0.0001845954511853114    4    1   11   11
 -0.007071799203238745    4    1   12    1
 0.01879480011033865    4    1   12    4
 -0.008872732314066255    4    1   12    6
 0.0001866522242490596    4    1   12   12
 -0.0025874302870237    4    1   13    2
 0.0198940999204287    4    1   13    8
 0.001661155744861245    4    1   13    9
 0.001279421935124184    4    1   13   13
 -0.002581103263747151    4    1   14    3
 -0.01496779585329581    4    1   14    7
 0.001700819804385644    4    1   14   10
 -0.001292145372567049    4    1   14   14
 -0.005615213259370035    4    1   15    1
 -0.005245152877472047    4    1   15    4
 -0.01231433498323088    4    1   15    6
 -0.0009415557949480435    4    1   15   12
 -0.01348666423194799    4    1   15   15
 -0.005239866113955595    4    1   16    5
 -0.0009330423689857686    4    1   16   11
 0.01349411460432324    4    1   16   16
 -9.910663958297432e-07    4    1   17    1
 0.004740006884817403    4    1   17    4
 -3.042400845712718e-06    4    1   17    6
 -0.01938139240626672    4    1   17   12
 0.0006743453447802065    4    1   17   15
 6.484046965953656e-06    4    1   17   17
 0.001006601085723635    4    1   18    5
 0.01546422916824902    4    1   18   11
 0.0167930398506449    4    1   18   16
 -2.057823352218666e-05    4    1   18   18
 0.002677343411576474    4    1   19    2
 1.608559678818408e-05    4    1   19    8
 0.01182247235518082    4    1   19    9
 -0.008749269496965938    4    1   19   13
 -6.367024173673007e-06    4    1   19   19
 0.002402407737629957    4    1   20    2
 -0.004777628399300038    4    1   20    8
 0.004988336540243699    4    1   20    9
 0.019241550830694    4    1   20   13
 -0.01923655365594024    4    1   20   19
 -0.003112622810067863    4    1   20   20
 -0.002397996403327719    4    1   21    3
 0.00117463667307309    4    1   21    7
 -0.004976588923906834    4    1   21   10
 0.01923866077764905    4    1   21   14
 0.003120695936611503    4    1   21   21
 -2.175630525822619e-07    4    1   22    1
 -0.002492818577376382    4    1   22    4
 -0.003253241326418743    4    1   22    6
 0.003028455816080919    4    1   22   12
 0.003278660303070291    4    1   22   15
 0.02257626441603657    4    1   22   17
 -0.01847885703666176    4    1   22   22
 0.002492279034372954    4    1   23    5
 -0.003028902771680498    4    1   23   11
 0.003283577245374475    4    1   23   16
 0.01426541976098977    4    1   23   18
 0.01846601883646923    4    1   23   23
 -0.0001440950619286878    4    1   24    2
 6.962910263924951e-06    4    1   24    8
 0.005785542867879335    4    1   24    9
 -0.007524722095459838    4    1   24   13
 1.474304624692882e-05    4    1   24   19
 0.02102882363657845    4    1   24   20
 5.6857193533634e-06    4    1   24   24
 -0.03593212391456159    4    2    2    1
 0.04095618893848908    4    2    4    2
 -0.0159086518454652    4    2    5    3
 0.01840562915063866    4    2    6    2
 -0.02912875398159788    4    2    7    5
 0.01510958043698248    4    2    8    1
 -0.0310751491686909    4    2    8    4
 -0.008335359895978623    4    2    8    6
 -0.004895263854613266    4    2    9    1
 -0.008910858786989016    4    2    9    4
 -0.03139442229341483    4    2    9    6
 0.01022583301835833    4    2   10    5
 -0.007362299472919207    4    2   11    3
 -0.02941076529390736    4    2   11    7
 0.0177540573673887    4    2   11   10
 -0.01597495857529145    4    2   12    2
 0.0287491770713488    4    2   12    8
 -0.01804984685795054    4    2   12    9
 -0.001174141035040277    4    2   13    1
 0.01573100371501719    4    2   13    4
 0.004825573733270321    4    2   13    6
 -0.02293125341841113    4    2   13   12
 -0.009838752790018637    4    2   14    5
 -0.02284851328615895    4    2   14   11
 0.0006056322372631207    4    2   15    2
 -0.00987412840441422    4    2   15    8
 -0.0227590454377706    4    2   15    9
 0.01824009254352608    4    2   15   13
 -0.005217523568806635    4    2   16    3
 -0.005480029020249502    4    2   16    7
 -0.003332282451654641    4    2   16   10
 -0.01796737965545478    4    2   16   14
 -0.006162768428019659    4    2   17    2
 0.01460506635975731    4    2   17    8
 -0.01046757139960793    4    2   17    9
 -0.02759496612751434    4    2   17   13
 -0.0002387407765850245    4    2   18    3
 0.01186073338241827    4    2   18    7
 -0.005663951646592488    4    2   18   10
 0.0313767629761266    4    2   18   14
 0.003029545366552678    4    2   19    1
 0.0006261684408988442    4    2   19    4
 0.008112019221888242    4    2   19    6
 0.005208466402844643    4    2   19   12
 0.03310062481605254    4    2   19   15
 0.009369679714573975    4    2   19   17
 0.002711401440129524    4    2   20    1
 -0.004449345955400906    4    2   20    4
 0.0009068824684190266    4    2   20    6
 0.01559051942577749    4    2   20   12
 0.01087951704638712    4    2   20   15
 0.03257114390809995    4    2   20   17
 0.0009289360156566133    4    2   21    5
 0.009574042594834834    4    2   21   11
 0.01139207424811637    4    2   21   16
 -0.02877778274681876    4    2   21   18
 0.003287566674305672    4    2   22    2
 -0.006254849709830353    4    2   22    8
 -0.000175977520832594    4    2   22    9
 0.01650955610823154    4    2   22   13
 -0.02014935922880513    4    2   22   19
 -0.042112408867141    4    2   22   20
 0.002074071653224643    4    2   23    3
 8.601246123115988e-05    4    2   23    7
 0.005013545300827258    4    2   23   10
 -0.007227938134670233    4    2   23   14
 0.01530392599987154    4    2   23   21
 4.102596343843719e-05    4    2   24    1
 0.002381843977745028    4    2   24    4
 0.00358246308904133    4    2   24    6
 -0.0008869322676406889    4    2   24   12
 0.005643499984605022    4    2   24   15
 -0.01512089130406692    4    2   24   17
 0.03591958885925572    4    2   24   22
 0.0359223156360392    4    3    3    1
 0.03781758073734632    4    3    4    3
 0.01901505562583428    4    3    5    2
 -0.01841400129526025    4    3    6    3
 -0.009484491973891899    4    3    7    1
 -0.02910931643460188    4    3    7    4
 0.01495600883531134    4    3    7    6
 0.03105462382344727    4    3    8    5
 -0.0001490081072267795    4    3    9    5
 0.004888648458337807    4    3   10    1
 -0.01901492149991098    4    3   10    4
 0.0314030404170569    4    3   10    6
 -0.01355896691415939    4    3   11    2
 -0.0287691935733497    4    3   11    8
 -0.009254036691776126    4    3   11    9
 0.004942994728988541    4    3   12    3
 -0.02939483328002328    4    3   12    7
 -0.02647165925293718    4    3   12   10
 0.01155769514335125    4    3   13    5
 -0.02337993358072863    4    3   13   11
 -0.00117019995882314    4    3   14    1
 0.005668492136200757    4    3   14    4
 0.004833115499828225    4    3   14    6
 0.02236051968724075    4    3   14   12
 -0.004400867182722912    4    3   15    3
 0.005483814099377422    4    3   15    7
 -0.01377390788891385    4    3   15   10
 -0.00908373969850048    4    3   15   14
 0.0001969387912853305    4    3   16    2
 -0.00984557949711487    4    3   16    8
 0.01230517296099193    4    3   16    9
 -0.02713757588991014    4    3   16   13
 0.00616298594215297    4    3   17    3
 0.009745676307205166    4    3   17    7
 0.0104557393822248    4    3   17   10
 -0.0275721934347546    4    3   17   14
 -0.00023882603660133    4    3   18    2
 -0.01018005544606375    4    3   18    8
 -0.005651489641016044    4    3   18    9
 -0.03133418271242647    4    3   18   13
 -0.0006215154721630799    4    3   19    5
 -0.005207700477632709    4    3   19   11
 0.03307523587799785    4    3   19   16
 0.01563134213019233    4    3   19   18
 -0.002681396058061885    4    3   20    5
 -0.005441440062687763    4    3   20   11
 -0.0210399148754307    4    3   20   16
 -0.02875347745823108    4    3   20   18
 -0.002706954228507065    4    3   21    1
 -0.002691498737538218    4    3   21    4
 -0.0009043578030998431    4    3   21    6
 0.01144736009494284    4    3   21   12
 0.001251472259942579    4    3   21   15
 -0.03256222493814335    4    3   21   17
 0.0004673977760517706    4    3   22    3
 8.516112050464993e-05    4    3   22    7
 -0.001176277842383236    4    3   22   10
 -0.01394032170205884    4    3   22   14
 -0.02030008594955109    4    3   22   21
 0.0007533787133347631    4    3   23    2
 0.006250676700661912    4    3   23    8
 -0.004007189740351766    4    3   23    9
 -0.004679538653078453    4    3   23   13
 0.02012750407208404    4    3   23   19
 -0.0370891350173532    4    3   23   20
 -0.002381186439482312    4    3   24    5
 0.0008878276338681831    4    3   24   11
 0.005646191114814744    4    3   24   16
 -0.008247728029901993    4    3   24   18
 -0.03588722723456948    4    3   24   23
 0.1653537898786701    4    4    1    1
 0.1661380142565135    4    4    2    2
 0.1632772907705968    4    4    3    3
 -0.001512590510756435    4    4    4    1
 0.1728594959817613    4    4    4    4
 0.153283455587664    4    4    5    5
 0.001246544733419404    4    4    6    1
 -0.003607244340119714    4    4    6    4
 0.1604134291318519    4    4    6    6
 -0.008617135602795957    4    4    7    3
 0.1572946600378608    4    4    7    7