[Molden Format]
made by pyscf v[2.0.1]
[Atoms] (AU)
C   1   6     1.37005144030967     0.00000000000000     0.00000000000000
C   2   6    -1.37005144030967     0.00000000000000     0.00000000000000
C   3   6     2.63616794376826     2.19297811229174     0.00000000000000
C   4   6    -2.63616794376826    -2.19297811229174     0.00000000000000
H   5   1     2.39050354757480    -1.76747489647394     0.00000000000000
H   6   1    -2.39050354757480     1.76747489647394     0.00000000000000
C   7   6     5.37627082438760     2.19297811229174     0.00000000000000
C   8   6    -5.37627082438760    -2.19297811229174     0.00000000000000
H   9   1     1.61571583650313     3.96045300876567     0.00000000000000
H   10   1    -1.61571583650313    -3.96045300876567     0.00000000000000
C   11   6     6.64238732784619     4.38595622458347     0.00000000000000
C   12   6    -6.64238732784619    -4.38595622458347     0.00000000000000
H   13   1     6.39672293165273     0.42550321581780     0.00000000000000
H   14   1    -6.39672293165273    -0.42550321581780     0.00000000000000
C   15   6     9.38249020846553     4.38595622458347     0.00000000000000
C   16   6    -9.38249020846553    -4.38595622458347     0.00000000000000
H   17   1     5.62193522058106     6.15343112105741     0.00000000000000
H   18   1    -5.62193522058106    -6.15343112105741     0.00000000000000
C   19   6    10.64860671192412     6.57893433687521     0.00000000000000
C   20   6   -10.64860671192412    -6.57893433687521     0.00000000000000
H   21   1    10.40294231573067     2.61848132810954     0.00000000000000
H   22   1   -10.40294231573067    -2.61848132810954     0.00000000000000
C   23   6    13.38870959254346     6.57893433687521     0.00000000000000
C   24   6   -13.38870959254346    -6.57893433687521     0.00000000000000
H   25   1     9.62815460465899     8.34640923334915     0.00000000000000
H   26   1    -9.62815460465899    -8.34640923334915     0.00000000000000
C   27   6    14.65482609600205     8.77191244916695     0.00000000000000
C   28   6   -14.65482609600205    -8.77191244916695     0.00000000000000
H   29   1    14.40916169980860     4.81145944040127     0.00000000000000
H   30   1   -14.40916169980860    -4.81145944040127     0.00000000000000
H   31   1    16.69573031053232     8.77191244916695     0.00000000000000
H   32   1   -16.69573031053232    -8.77191244916695     0.00000000000000
H   33   1    13.63437398873692    10.53938734564088     0.00000000000000
H   34   1   -13.63437398873692   -10.53938734564088     0.00000000000000
[GTO]
1 0
 s    6 1.00
             3047.5249  0.0018347001629433
             457.36951    0.01403730124668
             103.94869   0.068842606114048
             29.210155    0.23218442062076
              9.286663    0.46794134155879
              3.163927    0.36231203217765
 s    3 1.00
             7.8682724   -0.11933240861517
             1.8812885   -0.16085421161283
             0.5442493     1.1434564825515
 s    1 1.00
             0.1687144                   1
 p    3 1.00
             7.8682724   0.068999095584993
             1.8812885    0.31642397975315
             0.5442493    0.74430825237435
 p    1 1.00
             0.1687144                   1

2 0
 s    6 1.00
             3047.5249  0.0018347001629433
             457.36951    0.01403730124668
             103.94869   0.068842606114048
             29.210155    0.23218442062076
              9.286663    0.46794134155879
              3.163927    0.36231203217765
 s    3 1.00
             7.8682724   -0.11933240861517
             1.8812885   -0.16085421161283
             0.5442493     1.1434564825515
 s    1 1.00
             0.1687144                   1
 p    3 1.00
             7.8682724   0.068999095584993
             1.8812885    0.31642397975315
             0.5442493    0.74430825237435
 p    1 1.00
             0.1687144                   1

3 0
 s    6 1.00
             3047.5249  0.0018347001629433
             457.36951    0.01403730124668
             103.94869   0.068842606114048
             29.210155    0.23218442062076
              9.286663    0.46794134155879
              3.163927    0.36231203217765
 s    3 1.00
             7.8682724   -0.11933240861517
             1.8812885   -0.16085421161283
             0.5442493     1.1434564825515
 s    1 1.00
             0.1687144                   1
 p    3 1.00
             7.8682724   0.068999095584993
             1.8812885    0.31642397975315
             0.5442493    0.74430825237435
 p    1 1.00
             0.1687144                   1

4 0
 s    6 1.00
             3047.5249  0.0018347001629433
             457.36951    0.01403730124668
             103.94869   0.068842606114048
             29.210155    0.23218442062076
              9.286663    0.46794134155879
              3.163927    0.36231203217765
 s    3 1.00
             7.8682724   -0.11933240861517
             1.8812885   -0.16085421161283
             0.5442493     1.1434564825515
 s    1 1.00
             0.1687144                   1
 p    3 1.00
             7.8682724   0.068999095584993
             1.8812885    0.31642397975315
             0.5442493    0.74430825237435
 p    1 1.00
             0.1687144                   1

5 0
 s    3 1.00
             18.731137    0.03349459952309
             2.8253937    0.23472694665786
             0.6401217    0.81375731841339
 s    1 1.00
             0.1612778                   1

6 0
 s    3 1.00
             18.731137    0.03349459952309
             2.8253937    0.23472694665786
             0.6401217    0.81375731841339
 s    1 1.00
             0.1612778                   1

7 0
 s    6 1.00
             3047.5249  0.0018347001629433
             457.36951    0.01403730124668
             103.94869   0.068842606114048
             29.210155    0.23218442062076
              9.286663    0.46794134155879
              3.163927    0.36231203217765
 s    3 1.00
             7.8682724   -0.11933240861517
             1.8812885   -0.16085421161283
             0.5442493     1.1434564825515
 s    1 1.00
             0.1687144                   1
 p    3 1.00
             7.8682724   0.068999095584993
             1.8812885    0.31642397975315
             0.5442493    0.74430825237435
 p    1 1.00
             0.1687144                   1

8 0
 s    6 1.00
             3047.5249  0.0018347001629433
             457.36951    0.01403730124668
             103.94869   0.068842606114048
             29.210155    0.23218442062076
              9.286663    0.46794134155879
              3.163927    0.36231203217765
 s    3 1.00
             7.8682724   -0.11933240861517
             1.8812885   -0.16085421161283
             0.5442493     1.1434564825515
 s    1 1.00
             0.1687144                   1
 p    3 1.00
             7.8682724   0.068999095584993
             1.8812885    0.31642397975315
             0.5442493    0.74430825237435
 p    1 1.00
             0.1687144                   1

9 0
 s    3 1.00
             18.731137    0.03349459952309
             2.8253937    0.23472694665786
             0.6401217    0.81375731841339
 s    1 1.00
             0.1612778                   1

10 0
 s    3 1.00
             18.731137    0.03349459952309
             2.8253937    0.23472694665786
             0.6401217    0.81375731841339
 s    1 1.00
             0.1612778                   1

11 0
 s    6 1.00
             3047.5249  0.0018347001629433
             457.36951    0.01403730124668
             103.94869   0.068842606114048
             29.210155    0.23218442062076
              9.286663    0.46794134155879
              3.163927    0.36231203217765
 s    3 1.00
             7.8682724   -0.11933240861517
             1.8812885   -0.16085421161283
             0.5442493     1.1434564825515
 s    1 1.00
             0.1687144                   1
 p    3 1.00
             7.8682724   0.068999095584993
             1.8812885    0.31642397975315
             0.5442493    0.74430825237435
 p    1 1.00
             0.1687144                   1

12 0
 s    6 1.00
             3047.5249  0.0018347001629433
             457.36951    0.01403730124668
             103.94869   0.068842606114048
             29.210155    0.23218442062076
              9.286663    0.46794134155879
              3.163927    0.36231203217765
 s    3 1.00
             7.8682724   -0.11933240861517
             1.8812885   -0.16085421161283
             0.5442493     1.1434564825515
 s    1 1.00
             0.1687144                   1
 p    3 1.00
             7.8682724   0.068999095584993
             1.8812885    0.31642397975315
             0.5442493    0.74430825237435
 p    1 1.00
             0.1687144                   1

13 0
 s    3 1.00
             18.731137    0.03349459952309
             2.8253937    0.23472694665786
             0.6401217    0.81375731841339
 s    1 1.00
             0.1612778                   1

14 0
 s    3 1.00
             18.731137    0.03349459952309
             2.8253937    0.23472694665786
             0.6401217    0.81375731841339
 s    1 1.00
             0.1612778                   1

15 0
 s    6 1.00
             3047.5249  0.0018347001629433
             457.36951    0.01403730124668
             103.94869   0.068842606114048
             29.210155    0.23218442062076
              9.286663    0.46794134155879
              3.163927    0.36231203217765
 s    3 1.00
             7.8682724   -0.11933240861517
             1.8812885   -0.16085421161283
             0.5442493     1.1434564825515
 s    1 1.00
             0.1687144                   1
 p    3 1.00
             7.8682724   0.068999095584993
             1.8812885    0.31642397975315
             0.5442493    0.74430825237435
 p    1 1.00
             0.1687144                   1

16 0
 s    6 1.00
             3047.5249  0.0018347001629433
             457.36951    0.01403730124668
             103.94869   0.068842606114048
             29.210155    0.23218442062076
              9.286663    0.46794134155879
              3.163927    0.36231203217765
 s    3 1.00
             7.8682724   -0.11933240861517
             1.8812885   -0.16085421161283
             0.5442493     1.1434564825515
 s    1 1.00
             0.1687144                   1
 p    3 1.00
             7.8682724   0.068999095584993
             1.8812885    0.31642397975315
             0.5442493    0.74430825237435
 p    1 1.00
             0.1687144                   1

17 0
 s    3 1.00
             18.731137    0.03349459952309
             2.8253937    0.23472694665786
             0.6401217    0.81375731841339
 s    1 1.00
             0.1612778                   1

18 0
 s    3 1.00
             18.731137    0.03349459952309
             2.8253937    0.23472694665786
             0.6401217    0.81375731841339
 s    1 1.00
             0.1612778                   1

19 0
 s    6 1.00
             3047.5249  0.0018347001629433
             457.36951    0.01403730124668
             103.94869   0.068842606114048
             29.210155    0.23218442062076
              9.286663    0.46794134155879
              3.163927    0.36231203217765
 s    3 1.00
             7.8682724   -0.11933240861517
             1.8812885   -0.16085421161283
             0.5442493     1.1434564825515
 s    1 1.00
             0.1687144                   1
 p    3 1.00
             7.8682724   0.068999095584993
             1.8812885    0.31642397975315
             0.5442493    0.74430825237435
 p    1 1.00
             0.1687144                   1

20 0
 s    6 1.00
             3047.5249  0.0018347001629433
             457.36951    0.01403730124668
             103.94869   0.068842606114048
             29.210155    0.23218442062076
              9.286663    0.46794134155879
              3.163927    0.36231203217765
 s    3 1.00
             7.8682724   -0.11933240861517
             1.8812885   -0.16085421161283
             0.5442493     1.1434564825515
 s    1 1.00
             0.1687144                   1
 p    3 1.00
             7.8682724   0.068999095584993
             1.8812885    0.31642397975315
             0.5442493    0.74430825237435
 p    1 1.00
             0.1687144                   1

21 0
 s    3 1.00
             18.731137    0.03349459952309
             2.8253937    0.23472694665786
             0.6401217    0.81375731841339
 s    1 1.00
             0.1612778                   1

22 0
 s    3 1.00
             18.731137    0.03349459952309
             2.8253937    0.23472694665786
             0.6401217    0.81375731841339
 s    1 1.00
             0.1612778                   1

23 0
 s    6 1.00
             3047.5249  0.0018347001629433
             457.36951    0.01403730124668
             103.94869   0.068842606114048
             29.210155    0.23218442062076
              9.286663    0.46794134155879
              3.163927    0.36231203217765
 s    3 1.00
             7.8682724   -0.11933240861517
             1.8812885   -0.16085421161283
             0.5442493     1.1434564825515
 s    1 1.00
             0.1687144                   1
 p    3 1.00
             7.8682724   0.068999095584993
             1.8812885    0.31642397975315
             0.5442493    0.74430825237435
 p    1 1.00
             0.1687144                   1

24 0
 s    6 1.00
             3047.5249  0.0018347001629433
             457.36951    0.01403730124668
             103.94869   0.068842606114048
             29.210155    0.23218442062076
              9.286663    0.46794134155879
              3.163927    0.36231203217765
 s    3 1.00
             7.8682724   -0.11933240861517
             1.8812885   -0.16085421161283
             0.5442493     1.1434564825515
 s    1 1.00
             0.1687144                   1
 p    3 1.00
             7.8682724   0.068999095584993
             1.8812885    0.31642397975315
             0.5442493    0.74430825237435
 p    1 1.00
             0.1687144                   1

25 0
 s    3 1.00
             18.731137    0.03349459952309
             2.8253937    0.23472694665786
             0.6401217    0.81375731841339
 s    1 1.00
             0.1612778                   1

26 0
 s    3 1.00
             18.731137    0.03349459952309
             2.8253937    0.23472694665786
             0.6401217    0.81375731841339
 s    1 1.00
             0.1612778                   1

27 0
 s    6 1.00
             3047.5249  0.0018347001629433
             457.36951    0.01403730124668
             103.94869   0.068842606114048
             29.210155    0.23218442062076
              9.286663    0.46794134155879
              3.163927    0.36231203217765
 s    3 1.00
             7.8682724   -0.11933240861517
             1.8812885   -0.16085421161283
             0.5442493     1.1434564825515
 s    1 1.00
             0.1687144                   1
 p    3 1.00
             7.8682724   0.068999095584993
             1.8812885    0.31642397975315
             0.5442493    0.74430825237435
 p    1 1.00
             0.1687144                   1

28 0
 s    6 1.00
             3047.5249  0.0018347001629433
             457.36951    0.01403730124668
             103.94869   0.068842606114048
             29.210155    0.23218442062076
              9.286663    0.46794134155879
              3.163927    0.36231203217765
 s    3 1.00
             7.8682724   -0.11933240861517
             1.8812885   -0.16085421161283
             0.5442493     1.1434564825515
 s    1 1.00
             0.1687144                   1
 p    3 1.00
             7.8682724   0.068999095584993
             1.8812885    0.31642397975315
             0.5442493    0.74430825237435
 p    1 1.00
             0.1687144                   1

29 0
 s    3 1.00
             18.731137    0.03349459952309
             2.8253937    0.23472694665786
             0.6401217    0.81375731841339
 s    1 1.00
             0.1612778                   1

30 0
 s    3 1.00
             18.731137    0.03349459952309
             2.8253937    0.23472694665786
             0.6401217    0.81375731841339
 s    1 1.00
             0.1612778                   1

31 0
 s    3 1.00
             18.731137    0.03349459952309
             2.8253937    0.23472694665786
             0.6401217    0.81375731841339
 s    1 1.00
             0.1612778                   1

32 0
 s    3 1.00
             18.731137    0.03349459952309
             2.8253937    0.23472694665786
             0.6401217    0.81375731841339
 s    1 1.00
             0.1612778                   1

33 0
 s    3 1.00
             18.731137    0.03349459952309
             2.8253937    0.23472694665786
             0.6401217    0.81375731841339
 s    1 1.00
             0.1612778                   1

34 0
 s    3 1.00
             18.731137    0.03349459952309
             2.8253937    0.23472694665786
             0.6401217    0.81375731841339
 s    1 1.00
             0.1612778                   1

[5d]
[7f]
[9g]

[MO]
 Sym= Au
 Ene=               0
 Spin= Alpha
 Occup=    1.00000
   1                     0
   2                     0
   3                     0
   4                     0
   5                     0
   6      0.18296808764703
   7                     0
   8                     0
   9      0.11380782328953
  10                     0
  11                     0
  12                     0
  13                     0
  14                     0
  15      0.18296808764703
  16                     0
  17                     0
  18      0.11380782328953
  19                     0
  20                     0
  21                     0
  22                     0
  23                     0
  24      0.17805566928191
  25                     0
  26                     0
  27      0.11099669096455
  28                     0
  29                     0
  30                     0
  31                     0
  32                     0
  33      0.17805566928191
  34                     0
  35                     0
  36      0.11099669096455
  37                     0
  38                     0
  39                     0
  40                     0
  41                     0
  42                     0
  43                     0
  44                     0
  45                     0
  46      0.16256747739805
  47                     0
  48                     0
  49      0.10086391292937
  50                     0
  51                     0
  52                     0
  53                     0
  54                     0
  55      0.16256747739805
  56                     0
  57                     0
  58      0.10086391292937
  59                     0
  60                     0
  61                     0
  62                     0
  63                     0
  64                     0
  65                     0
  66                     0
  67                     0
  68      0.14850074909157
  69                     0
  70                     0
  71     0.092791714817479
  72                     0
  73                     0
  74                     0
  75                     0
  76                     0
  77      0.14850074909157
  78                     0
  79                     0
  80     0.092791714817479
  81                     0
  82                     0
  83                     0
  84                     0
  85                     0
  86                     0
  87                     0
  88                     0
  89                     0
  90      0.11960087574785
  91                     0
  92                     0
  93     0.073912324658734
  94                     0
  95                     0
  96                     0
  97                     0
  98                     0
  99      0.11960087574785
 100                     0
 101                     0
 102     0.073912324658734
 103                     0
 104                     0
 105                     0
 106                     0
 107                     0
 108                     0
 109                     0
 110                     0
 111                     0
 112     0.098391656277836
 113                     0
 114                     0
 115     0.061712593383963
 116                     0
 117                     0
 118                     0
 119                     0
 120                     0
 121     0.098391656277836
 122                     0
 123                     0
 124     0.061712593383963
 125                     0
 126                     0
 127                     0
 128                     0
 129                     0
 130                     0
 131                     0
 132                     0
 133                     0
 134     0.060625157338696
 135                     0
 136                     0
 137       0.0365581419431
 138                     0
 139                     0
 140                     0
 141                     0
 142                     0
 143     0.060625157338696
 144                     0
 145                     0
 146       0.0365581419431
 147                     0
 148                     0
 149                     0
 150                     0
 151                     0
 152                     0
 153                     0
 154                     0
 155                     0
 156     0.037429463479614
 157                     0
 158                     0
 159     0.023715440966029
 160                     0
 161                     0
 162                     0
 163                     0
 164                     0
 165     0.037429463479614
 166                     0
 167                     0
 168     0.023715440966029
 169                     0
 170                     0
 171                     0
 172                     0
 173                     0
 174                     0
 175                     0
 176                     0
 177                     0
 178                     0
 179                     0
 180                     0
 Sym= Bg
 Ene=               1
 Spin= Alpha
 Occup=    1.00000
   1                     0
   2                     0
   3                     0
   4                     0
   5                     0
   6     0.042283004774751
   7                     0
   8                     0
   9     0.028594056368435
  10                     0
  11                     0
  12                     0
  13                     0
  14                     0
  15    -0.042283004774751
  16                     0
  17                     0
  18    -0.028594056368435
  19                     0
  20                     0
  21                     0
  22                     0
  23                     0
  24     0.090566024098322
  25                     0
  26                     0
  27     0.056354582630578
  28                     0
  29                     0
  30                     0
  31                     0
  32                     0
  33    -0.090566024098322
  34                     0
  35                     0
  36    -0.056354582630578
  37                     0
  38                     0
  39                     0
  40                     0
  41                     0
  42                     0
  43                     0
  44                     0
  45                     0
  46      0.15270135437969
  47                     0
  48                     0
  49     0.098445654738361
  50                     0
  51                     0
  52                     0
  53                     0
  54                     0
  55     -0.15270135437969
  56                     0
  57                     0
  58    -0.098445654738361
  59                     0
  60                     0
  61                     0
  62                     0
  63                     0
  64                     0
  65                     0
  66                     0
  67                     0
  68      0.17529546428693
  69                     0
  70                     0
  71      0.11122394498709
  72                     0
  73                     0
  74                     0
  75                     0
  76                     0
  77     -0.17529546428693
  78                     0
  79                     0
  80     -0.11122394498709
  81                     0
  82                     0
  83                     0
  84                     0
  85                     0
  86                     0
  87                     0
  88                     0
  89                     0
  90      0.18207865086779
  91                     0
  92                     0
  93      0.11612277743549
  94                     0
  95                     0
  96                     0
  97                     0
  98                     0
  99     -0.18207865086779
 100                     0
 101                     0
 102     -0.11612277743549
 103                     0
 104                     0
 105                     0
 106                     0
 107                     0
 108                     0
 109                     0
 110                     0
 111                     0
 112      0.16697831864796
 113                     0
 114                     0
 115      0.10690807118368
 116                     0
 117                     0
 118                     0
 119                     0
 120                     0
 121     -0.16697831864796
 122                     0
 123                     0
 124     -0.10690807118368
 125                     0
 126                     0
 127                     0
 128                     0
 129                     0
 130                     0
 131                     0
 132                     0
 133                     0
 134      0.11566510989799
 135                     0
 136                     0
 137     0.071718379677099
 138                     0
 139                     0
 140                     0
 141                     0
 142                     0
 143     -0.11566510989799
 144                     0
 145                     0
 146    -0.071718379677099
 147                     0
 148                     0
 149                     0
 150                     0
 151                     0
 152                     0
 153                     0
 154                     0
 155                     0
 156     0.075115968541073
 157                     0
 158                     0
 159      0.04877543307003
 160                     0
 161                     0
 162                     0
 163                     0
 164                     0
 165    -0.075115968541073
 166                     0
 167                     0
 168     -0.04877543307003
 169                     0
 170                     0
 171                     0
 172                     0
 173                     0
 174                     0
 175                     0
 176                     0
 177                     0
 178                     0
 179                     0
 180                     0
 Sym= Au
 Ene=               2
 Spin= Alpha
 Occup=    1.00000
   1                     0
   2                     0
   3                     0
   4                     0
   5                     0
   6     -0.17312103045608
   7                     0
   8                     0
   9     -0.11421331176534
  10                     0
  11                     0
  12                     0
  13                     0
  14                     0
  15     -0.17312103045608
  16                     0
  17                     0
  18     -0.11421331176534
  19                     0
  20                     0
  21                     0
  22                     0
  23                     0
  24     -0.13325034162914
  25                     0
  26                     0
  27    -0.090302173722034
  28                     0
  29                     0
  30                     0
  31                     0
  32                     0
  33     -0.13325034162914
  34                     0
  35                     0
  36    -0.090302173722034
  37                     0
  38                     0
  39                     0
  40                     0
  41                     0
  42                     0
  43                     0
  44                     0
  45                     0
  46      -0.0200204203571
  47                     0
  48                     0
  49    -0.010805652762135
  50                     0
  51                     0
  52                     0
  53                     0
  54                     0
  55      -0.0200204203571
  56                     0
  57                     0
  58    -0.010805652762135
  59                     0
  60                     0
  61                     0
  62                     0
  63                     0
  64                     0
  65                     0
  66                     0
  67                     0
  68     0.055151231815877
  69                     0
  70                     0
  71     0.034147955545275
  72                     0
  73                     0
  74                     0
  75                     0
  76                     0
  77     0.055151231815877
  78                     0
  79                     0
  80     0.034147955545275
  81                     0
  82                     0
  83                     0
  84                     0
  85                     0
  86                     0
  87                     0
  88                     0
  89                     0
  90       0.1556945204748
  91                     0
  92                     0
  93      0.10504702780397
  94                     0
  95                     0
  96                     0
  97                     0
  98                     0
  99       0.1556945204748
 100                     0
 101                     0
 102      0.10504702780397
 103                     0
 104                     0
 105                     0
 106                     0
 107                     0
 108                     0
 109                     0
 110                     0
 111                     0
 112      0.18193646112503
 113                     0