 &FCI NORB=  16,NELEC=16,MS2=0,
  ORBSYM=1,1,1,1,1,1,1,1,1,1,1,1,1,1,1,1,
  ISYM=1,
 &END
 0.1941029267916364    1    1    1    1
 0.1541161253550237    1    1    2    2
 -0.03954144963804378    1    1    3    1
 0.1520048509820842    1    1    3    3
 -0.04069802224576111    1    1    4    2
 0.150288168344189    1    1    4    4
 0.00028185596074761    1    1    5    1
 0.04140005709948219    1    1    5    3
 0.1486114947971592    1    1    5    5
 -0.0001598556875260016    1    1    6    2
 -0.04190845872332002    1    1    6    4
 0.1464621219052415    1    1    6    6
 7.043517712337173e-05    1    1    7    1
 -0.0001548582029678909    1    1    7    3
 -0.04228380075031028    1    1    7    5
 0.1421410961331353    1    1    7    7
 3.360631193438917e-05    1    1    8    2
 -0.000613124017686314    1    1    8    4
 0.04325446849200987    1    1    8    6
 0.1767828173852138    1    1    8    8
 -1.697402931323213e-05    1    1    9    1
 -0.0001924713351918946    1    1    9    3
 0.003471756204620787    1    1    9    5
 -0.02853017314179815    1    1    9    7
 0.1763945453292889    1    1    9    9
 0.0001208232856855189    1    1   10    2
 0.001832590687321033    1    1   10    4
 -0.008898707235405465    1    1   10    6
 0.02838760851895283    1    1   10    8
 0.1407475518922038    1    1   10   10
 6.117503252945966e-05    1    1   11    1
 0.0009639332607314264    1    1   11    3
 0.004765547497250331    1    1   11    5
 0.008146249248429192    1    1   11    7
 0.04509942481288121    1    1   11    9
 0.1470057662022154    1    1   11   11
 -0.0005373485350433193    1    1   12    2
 0.002895962184601654    1    1   12    4
 0.004187788659996451    1    1   12    6
 0.004395972823106324    1    1   12    8
 0.04326291380050228    1    1   12   10
 0.1493553695169885    1    1   12   12
 -0.0002769651961791505    1    1   13    1
 0.001950212665714963    1    1   13    3
 -0.002396770314712512    1    1   13    5
 0.002466694539942734    1    1   13    7
 0.001256674689331006    1    1   13    9
 0.04263838567391309    1    1   13   11
 0.1498517534181372    1    1   13   13
 -0.001733734801001864    1    1   14    2
 -0.001178485809840812    1    1   14    4
 0.001347539745201087    1    1   14    6
 -0.0002783242830356625    1    1   14    8
 0.00140109015428482    1    1   14   10
 0.03780524887523241    1    1   14   12
 0.1361436055390325    1    1   14   14
 0.0004375500666309564    1    1   15    2
 -0.001078786486174277    1    1   15    4
 0.0004610982174690599    1    1   15    6
 -7.029214838813117e-05    1    1   15    8
 0.000100457442092529    1    1   15   10
 0.01784442686841179    1    1   15   12
 0.007545544016846058    1    1   15   14
 0.2217166113797964    1    1   15   15
 -0.001281377715529515    1    1   16    1
 -0.001044689066867054    1    1   16    3
 -0.0009146708248039783    1    1   16    5
 -0.0001628621032718039    1    1   16    7
 -0.0002856549071933909    1    1   16    9
 0.002305252181844081    1    1   16   11
 0.039666848694701    1    1   16   13
 0.1645420227640121    1    1   16   16
 0.07431232223259922    2    1    2    1
 0.04606879908160105    2    1    3    2
 -0.02845332379459398    2    1    4    1
 0.04507992057921954    2    1    4    3
 0.02908246697581537    2    1    5    2
 -0.04409533025820133    2    1    5    4
 0.0003923959234177109    2    1    6    1
 -0.02957412760828985    2    1    6    3
 -0.04289295044370414    2    1    6    5
 -0.00079127202936073    2    1    7    2
 0.02995323367870818    2    1    7    4
 -0.03981884615134155    2    1    7    6
 -0.0001075223102829058    2    1    8    1
 -0.001146893030393351    2    1    8    3
 -0.03114410443010635    2    1    8    5
 0.06240079894945263    2    1    8    7
 -0.0002502140672519863    2    1    9    2
 -0.003565404890063222    2    1    9    4
 0.02559205808409281    2    1    9    6
 0.02682558839096456    2    1    9    8
 0.0001482750444032661    2    1   10    1
 0.001917819529770071    2    1   10    3
 0.007417193470939025    2    1   10    5
 0.01411773021441611    2    1   10    7
 -0.06314933577937652    2    1   10    9
 0.0009992838935107696    2    1   11    2
 -0.004094283818091416    2    1   11    4
 0.0003049643812259664    2    1   11    6
 0.02587072062239729    2    1   11    8
 0.03872134768923199    2    1   11   10
 -0.000508548252915712    2    1   12    1
 0.002558645530428863    2    1   12    3
 0.000383165238217159    2    1   12    5
 -0.006791626117523789    2    1   12    7
 -0.0325491277565611    2    1   12    9
 -0.04311815064520669    2    1   12   11
 0.001749753364796207    2    1   13    2
 -0.0002392620886685439    2    1   13    4
 0.00360675760592811    2    1   13    6
 0.004434541620372283    2    1   13    8
 0.03045061621401011    2    1   13   10
 0.04442884033433084    2    1   13   12
 -0.0009022114824912289    2    1   14    1
 -0.0003686443570865683    2    1   14    3
 0.001757358900378988    2    1   14    5
 -0.002356836856644189    2    1   14    7
 -0.002037046167476892    2    1   14    9
 -0.02692491574569053    2    1   14   11
 -0.03414917426341685    2    1   14   13
 -0.001624902651590076    2    1   15    1
 0.001350069735995108    2    1   15    3
 0.001549648819623673    2    1   15    5
 -0.0008258191641260129    2    1   15    7
 -0.000447708343046414    2    1   15    9
 -0.01324014517932556    2    1   15   11
 -0.0427260718750716    2    1   15   13
 5.140248938850674e-05    2    1   16    2
 -0.001544977037217698    2    1   16    4
 0.001443883224554095    2    1   16    6
 -0.0001910011512115891    2    1   16    8
 0.002609552722482708    2    1   16   10
 0.02968110899414841    2    1   16   12
 0.07650957541212643    2    1   16   14
 -0.04953028832356172    2    1   16   15
 0.1541161253550237    2    2    1    1
 0.1706262139795061    2    2    2    2
 0.01626308092684246    2    2    3    1
 0.147592215459165    2    2    3    3
 -0.006987819597744643    2    2    4    2
 0.1460826919687366    2    2    4    4
 0.02284622643235378    2    2    5    1
 0.008514794979603798    2    2    5    3
 0.1445071344120526    2    2    5    5
 -0.02309845803819623    2    2    6    2
 -0.01017772731975602    2    2    6    4
 0.1413105960082803    2    2    6    6
 -0.0006709328885762358    2    2    7    1
 0.02319444142258938    2    2    7    3
 -0.01348356240200693    2    2    7    5
 0.1542824724879642    2    2    7    7
 -0.001111305899563617    2    2    8    2
 0.02394919526093219    2    2    8    4
 -0.00141771596158626    2    2    8    6
 0.153010286341086    2    2    8    8
 -0.0002201105466283675    2    2    9    1
 -0.003408542594095918    2    2    9    3
 -0.01899666193204115    2    2    9    5
 -0.002591578844961307    2    2    9    7
 0.1540606229406599    2    2    9    9
 0.001806084907789439    2    2   10    2
 -0.004561428596041523    2    2   10    4
 -0.02108636150910437    2    2   10    6
 0.002783049131297529    2    2   10    8
 0.1548307107603832    2    2   10   10
 0.0008542278545159068    2    2   11    1
 -0.002638673896671419    2    2   11    3
 0.003672867706276124    2    2   11    5
 0.02099935767605266    2    2   11    7
 -0.0001653483419316861    2    2   11    9
 0.1415874182273597    2    2   11   11
 0.001752770653008426    2    2   12    2
 0.002065835078769191    2    2   12    4
 0.003400905432881048    2    2   12    6
 -0.01829901030137928    2    2   12    8
 0.01552916952629325    2    2   12   10
 0.1465156201386585    2    2   12   12
 0.001486940728624079    2    2   13    1
 0.001369115944924194    2    2   13    3
 -0.001870440325619829    2    2   13    5
 -0.003281260778882792    2    2   13    7
 -0.02439791601755745    2    2   13    9
 0.01119441291052784    2    2   13   11
 0.1497447881945299    2    2   13   13
 -0.0009620758007253647    2    2   14    2
 -0.001549690319708059    2    2   14    4
 -0.0012138910241828    2    2   14    6
 -0.004117058149960363    2    2   14    8
 -0.01989968005341666    2    2   14   10
 0.01548322334823002    2    2   14   12
 0.1683695274351138    2    2   14   14
 -0.0005726557092719585    2    2   15    2
 0.0006407971183171508    2    2   15    4
 -0.001781760079968696    2    2   15    6
 -0.001471967354261971    2    2   15    8
 -0.01071276454786112    2    2   15   10
 -0.01613591832549485    2    2   15   12
 -0.01286909428821869    2    2   15   14
 0.1415510732445703    2    2   15   15
 0.0001158022523198237    2    2   16    1
 -0.0009396714902721995    2    2   16    3
 0.001199921603171219    2    2   16    5
 -0.002435054718424853    2    2   16    7
 -0.002762410360962228    2    2   16    9
 -0.0217475437188846    2    2   16   11
 0.002838247110984247    2    2   16   13
 0.1754306687513412    2    2   16   16
 -0.03954144963804378    3    1    1    1
 0.01626308092684247    3    1    2    2
 0.05512197380190341    3    1    3    1
 -0.004349900913401913    3    1    3    3
 0.03335273821105239    3    1    4    2
 -0.004170160243344143    3    1    4    4
 0.02223753782751331    3    1    5    1
 -0.03251477367032769    3    1    5    3
 -0.004072970740566125    3    1    5    5
 -0.02263616685909454    3    1    6    2
 0.03137507636765344    3    1    6    4
 -0.005098684042174229    3    1    6    6
 -0.0007049213049894856    3    1    7    1
 0.02304877801671334    3    1    7    3
 0.02849594919282785    3    1    7    5
 0.01199378393713387    3    1    7    7
 -0.001102870583198019    3    1    8    2
 0.02423939311240099    3    1    8    4
 -0.04418763596834958    3    1    8    6
 -0.02355880552366958    3    1    8    8
 -0.0002041187711593568    3    1    9    1
 -0.003138568161155231    3    1    9    3
 -0.02212605109492905    3    1    9    5
 0.02558590624861099    3    1    9    7
 -0.02210802038987041    3    1    9    9
 0.001647141927838025    3    1   10    2
 -0.006296551822095942    3    1   10    4
 -0.01203452414569088    3    1   10    6
 -0.0252772182518605    3    1   10    8
 0.01391439831422056    3    1   10   10
 0.0007694006136727096    3    1   11    1
 -0.003519391809595654    3    1   11    3
 -0.001025592937861597    3    1   11    5
 0.01267023346881959    3    1   11    7
 -0.04476864466146743    3    1   11    9
 -0.005364494310956401    3    1   11   11
 0.002224036284165786    3    1   12    2
 -0.0007855025136834871    3    1   12    4
 -0.0007467629338292342    3    1   12    6
 -0.02236132520428842    3    1   12    8
 -0.02744790341365587    3    1   12   10
 -0.002832747202968534    3    1   12   12
 0.001698081729354663    3    1   13    1
 -0.0005378418848615322    3    1   13    3
 0.0005087462576296284    3    1   13    5
 -0.005667952815940898    3    1   13    7
 -0.02532199429485306    3    1   13    9
 -0.03110161847041361    3    1   13   11
 -0.0001308977793770002    3    1   13   13
 0.0007105962619121749    3    1   14    2
 -0.0003616426020487456    3    1   14    4
 -0.002505888527681379    3    1   14    6
 -0.003758635218724841    3    1   14    8
 -0.02104273681808011    3    1   14   10
 -0.02210959446100026    3    1   14   12
 0.03181331500434527    3    1   14   14
 -0.0009534084642774979    3    1   15    2
 0.001650428863001874    3    1   15    4
 -0.002188943510598477    3    1   15    6
 -0.00136498946987    3    1   15    8
 -0.01065284493045404    3    1   15   10
 -0.03354347669026586    3    1   15   12
 -0.02014677797987212    3    1   15   14
 -0.07927283561361836    3    1   15   15
 0.001306091123843598    3    1   16    1
 9.320174542648457e-05    3    1   16    3
 0.002053373098371624    3    1   16    5
 -0.002227003015624368    3    1   16    7
 -0.002417156291660737    3    1   16    9
 -0.02374151760953438    3    1   16   11
 -0.03644205208828402    3    1   16   13
 0.01067903120125951    3    1   16   16
 0.04606879908160105    3    2    2    1
 0.06199110271174452    3    2    3    2
 0.01496280070863337    3    2    4    1
 0.04416630658466315    3    2    4    3
 0.003865720259155339    3    2    5    2
 -0.04332560748487128    3    2    5    4
 -0.01831471443193135    3    2    6    1
 -0.005339343966655678    3    2    6    3
 -0.04116192403786153    3    2    6    5
 0.01816643002565843    3    2    7    2
 0.008394603930639337    3    2    7    4
 -0.05072746082248138    3    2    7    6
 -0.0009422606727858745    3    2    8    1
 0.01890623441268627    3    2    8    3
 0.002492120719591511    3    2    8    5
 0.04963710744896033    3    2    8    7
 -0.002913687887971573    3    2    9    2
 0.01560178813073791    3    2    9    4
 0.003277395142261286    3    2    9    6
 0.02343590898244432    3    2    9    8
 0.001399422795704527    3    2   10    1
 -0.0034852982970776    3    2   10    3
 0.01787327704127583    3    2   10    5
 -0.007256240413019342    3    2   10    7
 -0.05144835577120219    3    2   10    9
 -0.002083857779929379    3    2   11    2
 -0.00283146018028951    3    2   11    4
 -0.01248911019952096    3    2   11    6
 0.004041198067158132    3    2   11    8
 0.0513681037319878    3    2   11   10
 0.001695580392884794    3    2   12    1
 0.001637169759057568    3    2   12    3
 0.0007233327674213146    3    2   12    5
 -0.01794607439344293    3    2   12    7
 0.0012487534422972    3    2   12    9
 -0.04157044490168302    3    2   12   11
 0.00122734709256343    3    2   13    2
 -0.0005041748185698974    3    2   13    4
 0.002697432895558959    3    2   13    6
 -0.01472540331383737    3    2   13    8
 0.0104792354268751    3    2   13   10
 0.04592982393841816    3    2   13   12
 0.0003198813714387674    3    2   14    1
 0.0002008152749853603    3    2   14    3
 0.001985952877041358    3    2   14    5
 0.001384640711154049    3    2   14    7
 0.0168260768155055    3    2   14    9
 -0.01206778622740053    3    2   14   11
 -0.05245773726626753    3    2   14   13
 -0.0007403637343116971    3    2   15    1
 0.0001513378637898157    3    2   15    3
 -0.0006223980429980484    3    2   15    5
 0.002551565146589697    3    2   15    7
 0.009189785042691134    3    2   15    9
 0.01354272090392705    3    2   15   11
 -0.005173604283543216    3    2   15   13
 0.0009840637504227854    3    2   16    2
 -0.001211229837679294    3    2   16    4
 -0.001389844877308182    3    2   16    6
 -0.004019825601250498    3    2   16    8
 -0.01722076354891454    3    2   16   10
 0.003035514948218539    3    2   16   12
 0.07395473412632053    3    2   16   14
 -0.01365595252338059    3    2   16   15
 0.1520048509820842    3    3    1    1
 0.147592215459165    3    3    2    2
 -0.004349900913401933    3    3    3    1
 0.1600020855694431    3    3    3    3
 0.007989130076194631    3    3    4    2
 0.1443982692027058    3    3    4    4
 -0.01190021317040291    3    3    5    1
 0.007686389565900522    3    3    5    3
 0.1419150809509758    3    3    5    5
 -0.004169779501833691    3    3    6    2
 -0.01010717188275768    3    3    6    4
 0.1479592834330632    3    3    6    6
 0.0154570022941301    3    3    7    1
 0.006564906327878248    3    3    7    3
 -0.003334994327639912    3    3    7    5
 0.145668335397983    3    3    7    7
 0.01575227478439555    3    3    8    2
 -0.002472049301790223    3    3    8    4
 0.005430456939417979    3    3    8    6
 0.1501010724231962    3    3    8    8
 -0.002216504667994789    3    3    9    1
 0.01285133410365391    3    3    9    3
 -0.0006318661026808983    3    3    9    5
 -0.004177327846685884    3    3    9    7
 0.1511036334254709    3    3    9    9
 -0.002766273691388954    3    3   10    2
 -0.01375584671255756    3    3   10    4
 -0.002814538611921522    3    3   10    6
 0.004301716070901854    3    3   10    8
 0.1471208441691932    3    3   10   10
 -0.002070668200312151    3    3   11    1
 -0.001552004566888807    3    3   11    3
 0.01490654058326536    3    3   11    5
 0.002900108327720825    3    3   11    7
 0.005599883434584545    3    3   11    9
 0.1498684086527195    3    3   11   11
 0.00112029087849363    3    3   12    2
 0.001578288967823496    3    3   12    4
 0.01469840545804232    3    3   12    6
 -0.0007568946421035315    3    3   12    8
 0.00375775675338272    3    3   12   10
 0.144398134094994    3    3   12   12
 -7.720022003329969e-05    3    3   13    1
 0.001103676361770146    3    3   13    3
 -0.001350842799343302    3    3   13    5
 -0.0131996321350017    3    3   13    7
 0.001368627361136149    3    3   13    9
 0.0102486489076047    3    3   13   11
 0.1498054569079611    3    3   13   13
 -0.0002042818278372171    3    3   14    2
 -0.0007439145562972601    3    3   14    4
 -0.001430454782594346    3    3   14    6
 0.009784226794225822    3    3   14    8
 -0.01219336495908396    3    3   14   10
 -0.0003187368850696684    3    3   14   12
 0.1579194828155784    3    3   14   14
 4.54397516987753e-05    3    3   15    2
 -0.0005423051455051348    3    3   15    4
 0.001009238557128429    3    3   15    6
 0.007322625144864    3    3   15    8
 0.01007470442621614    3    3   15   10
 0.01378633613437667    3    3   15   12
 0.00660723403404521    3    3   15   14
 0.1599741696188787    3    3   15   15
 -0.0001882124055118311    3    3   16    1
 -2.585174689747195e-05    3    3   16    3
 0.0007023291282614249    3    3   16    5
 0.00134915434335486    3    3   16    7
 0.01553793000843057    3    3   16    9
 -0.002102895584045685    3    3   16   11
 -0.008615395783905242    3    3   16   13
 0.148883913248532    3    3   16   16
 -0.02845332379459397    4    1    2    1
 0.01496280070863337    4    1    3    2
 0.04269192230908229    4    1    4    1
 -0.001363837116458446    4    1    4    3
 -0.02503275784421223    4    1    5    2
 0.001254233460221841    4    1    5    4
 -0.01817994339136248    4    1    6    1
 0.02404236250619273    4    1    6    3
 0.002169956434016116    4    1    6    5
 0.01848655494726948    4    1    7    2
 -0.02145764870001576    4    1    7    4
 -0.01026585151825685    4    1    7    6
 -0.0007669676694457279    4    1    8    1
 0.01955696025624776    4    1    8    3
 0.03331995973547106    4    1    8    5
 -0.01327088198891383    4    1    8    7
 -0.002521247005973351    4    1    9    2
 0.01858436251107293    4    1    9    4
 -0.02198115504630742    4    1    9    6
 -0.003591564404936766    4    1    9    8
 0.001178232766435414    4    1   10    1
 -0.005223882979149268    4    1   10    3
 0.01011352133285293    4    1   10    5
 -0.02099968581910992    4    1   10    7
 0.0122082814983882    4    1   10    9
 -0.00291660088100647    4    1   11    2
 0.001173461823488806    4    1   11    4
 -0.01242034972607064    4    1   11    6
 -0.0215460991731098    4    1   11    8
 0.01197367220302632    4    1   11   10
 0.002029798573071139    4    1   12    1
 -0.0008512952129622704    4    1   12    3
 0.0002939464177718347    4    1   12    5
 -0.0107747359442339    4    1   12    7
 0.0334898191767135    4    1   12    9
 0.001994942703991179    4    1   12   11
 -0.0004665442527848723    4    1   13    2
 -0.000254987663246244    4    1   13    4
 -0.0008591785145467872    4    1   13    6
 -0.01861350838379163    4    1   13    8
 -0.01992454536764632    4    1   13   10
 0.0009541473982154027    4    1   13   12
 0.001068350469143505    4    1   14    1
 0.0005086368757744516    4    1   14    3
 0.0001919531664143989    4    1   14    5
 0.003646096579488496    4    1   14    7
 0.01843642461104915    4    1   14    9
 0.01489868961673795    4    1   14   11
 -0.01750279864368787    4    1   14   13
 0.0007373953812554066    4    1   15    1
 -0.001031037641120692    4    1   15    3
 -0.002007819046413541    4    1   15    5
 0.003245216892610666    4    1   15    7
 0.009361849605008509    4    1   15    9
 0.02625784277208664    4    1   15   11
 0.03714709899055989    4    1   15   13
 0.0008099156797417737    4    1   16    2
 0.0003108122323373057    4    1   16    4
 -0.002686090529111872    4    1   16    6
 -0.003654302281102953    4    1   16    8
 -0.01937284006804426    4    1   16   10
 -0.02644775562944827    4    1   16   12
 -0.003467896835894121    4    1   16   14
 0.03562998046206078    4    1   16   15
 -0.04069802224576106    4    2    1    1
 -0.006987819597744637    4    2    2    2
 0.0333527382110524    4    2    3    1
 0.00798913007619465    4    2    3    3
 0.04734994696949113    4    2    4    2
 -0.005743913647755248    4    2    4    4
 -0.01270686363169231    4    2    5    1
 -0.03257433859536189    4    2    5    3
 -0.006566587765005689    4    2    5    5
 -0.00329605713780304    4    2    6    2
 0.03070062204507385    4    2    6    4
 0.001626327229343043    4    2    6    6
 0.01524509368834775    4    2    7    1
 0.005987802892609783    4    2    7    3
 0.03792163259896799    4    2    7    5
 0.003127665621151271    4    2    7    7
 0.01560811597408752    4    2    8    2
 -0.00257756593271537    4    2    8    4
 -0.03635437129675392    4    2    8    6
 -0.02596708800536042    4    2    8    8
 -0.00213361771585814    4    2    9    1
 0.01294924483702999    4    2    9    3
 -0.003373326147305246    4    2    9    5
 0.02331312865826891    4    2    9    7
 -0.0245495291929505    4    2    9    9
 -0.002881222102119814    4    2   10    2
 -0.01516809592740797    4    2   10    4
 0.006294254155640468    4    2   10    6
 -0.02311362293690889    4    2   10    8
 0.005912361920024143    4    2   10   10
 -0.002071978804841574    4    2   11    1
 -0.002342506205286697    4    2   11    3
 0.01014249491687842    4    2   11    5
 -0.005545210256590096    4    2   11    7
 -0.03799599254077761    4    2   11    9
 0.002973880788293404    4    2   11   11
 0.00150467851512556    4    2   12    2
 -0.001168512826059432    4    2   12    4
 0.01043738961146449    4    2   12    6
 -0.004414124247542551    4    2   12    8
 -0.03850937415632408    4    2   12   10
 -0.004905922456568599    4    2   12   12
 0.0001460716102262817    4    2   13    1
 -0.000730849290109559    4    2   13    3
 0.0009710085452567974    4    2   13    5
 -0.01527232726158302    4    2   13    7
 0.0008702085303040124    4    2   13    9
 -0.03131222107979694    4    2   13   11
 -0.0001103974666838823    4    2   13   13
 0.001303595177989234    4    2   14    2
 0.0004178098546816402    4    2   14    4
 -0.00261281320484197    4    2   14    6
 0.01004759476745302    4    2   14    8
 -0.012858686585999    4    2   14   10
 -0.03725545605065972    4    2   14   12
 0.02059644408135728    4    2   14   14
 -0.0003075759736799209    4    2   15    2
 0.0004524991012084319    4    2   15    4
 0.0005767776447555197    4    2   15    6
 0.007307334040817904    4    2   15    8
 0.01017908133833742    4    2   15   10
 -0.003111184363184979    4    2   15   12
 -0.0003669825319073839    4    2   15   14
 -0.05918991646506599    4    2   15   15
 0.0008910002857249379    4    2   16    1
 0.0009031762937147192    4    2   16    3
 0.001461562429240439    4    2   16    5
 0.001547311208170854    4    2   16    7
 0.01575664042526603    4    2   16    9
 -0.003669637440678252    4    2   16   11
 -0.04689184242843227    4    2   16   13
 -0.01596269854664184    4    2   16   16
 0.04507992057921952    4    3    2    1
 0.04416630658466314    4    3    3    2
 -0.001363837116458442    4    3    4    1
 0.05559475845956772    4    3    4    3
 -0.00925794026303323    4    3    5    2
 -0.04192849110444453    4    3    5    4
 0.01008113043296721    4    3    6    1
 -0.005211509417782865    4    3    6    3
 -0.04734508628252228    4    3    6    5
 0.004859663617183809    4    3    7    2
 -0.0004197416769080534    4    3    7    4
 -0.04577694540909621    4    3    7    6
 0.01377100348792782    4    3    8    1
 -0.002935987876638494    4    3    8    3
 -0.002062092758293101    4    3    8    5
 0.04806302745826514    4    3    8    7
 0.0107447096298307    4    3    9    2
 0.0002701691229862927    4    3    9    4
 0.003928502234093075    4    3    9    6
 0.02270086213581375    4    3    9    8
 -0.002933973963189963    4    3   10    1
 -0.01140897045947265    4    3   10    3
 0.002376841610280067    4    3   10    5
 -0.006384048376394393    4    3   10    7
 -0.04996421783569914    4    3   10    9
 -0.001377784042501399    4    3   11    2
 -0.01254640162555833    4    3   11    4
 0.002836783575296635    4    3   11    6
 0.004529730732512505    4    3   11    8
 0.04738455349787219    4    3   11   10
 -4.423753186051773e-05    4    3   12    1
 0.001221939047528538    4    3   12    3
 -0.009444477707275049    4    3   12    5
 -0.002861916278512005    4    3   12    7
 -0.002123819928356307    4    3   12    9
 -0.04923140174683283    4    3   12   11
 0.0003041703316470155    4    3   13    2
 -0.0009145316105378772    4    3   13    4
 0.01236102142493325    4    3   13    6
 -0.0007413540598274934    4    3   13    8
 -0.0001591930978106215    4    3   13   10
 0.0448991146985147    4    3   13   12
 8.122612364045659e-05    4    3   14    1
 0.0007436515538442646    4    3   14    3
 0.0007944898405864355    4    3   14    5
 0.01066146340660914    4    3   14    7
 0.003149069436781421    4    3   14    9
 -0.0003290349915087002    4    3   14   11
 -0.05210832538734021    4    3   14   13
 -0.0007372297831914365    4    3   15    1
 0.0005955264749449085    4    3   15    3
 0.0005928241826280846    4    3   15    5
 0.002462655080951298    4    3   15    7
 -0.01304010101922686    4    3   15    9
 -0.01113431009471866    4    3   15   11
 -0.02508576849300401    4    3   15   13
 0.0006768067047191928    4    3   16    2
 -0.0003099801650386541    4    3   16    4
 -0.0004126456592789495    4    3   16    6
 0.009876173092398535    4    3   16    8
 -0.004555706102577653    4    3   16   10
 -0.00785793017388549    4    3   16   12
 0.05599182325515727    4    3   16   14
 -0.02263665637125635    4    3   16   15
 0.150288168344189    4    4    1    1
 0.1460826919687366    4    4    2    2
 -0.004170160243344143    4    4    3    1
 0.1443982692027058    4    4    3    3
 -0.005743913647755259    4    4    4    2
 0.1526376968064399    4    4    4    4
 0.001392847395636516    4    4    5    1
 -0.002475344066985575    4    4    5    3
 0.1462547080560051    4    4    5    5
 0.006599151317711927    4    4    6    2
 -0.003701008945265357    4    4    6    4
 0.1440099001848018    4    4    6    6
 -0.007156506512393396    4    4    7    1
 -0.001049033001403305    4    4    7    3
 -0.005853516282980397    4    4    7    5
 0.143903451196592    4    4    7    7
 -0.002715310480317346    4    4    8    2
 0.0010247562464077    4    4    8    4
 0.005506165380380275    4    4    8    6
 0.1484402568874472    4    4    8    8
 0.01006088006734296    4    4    9    1
 -3.208506341724373e-05    4    4    9    3
 -0.0009950024514355079    4    4    9    5
 -0.004023244943999258    4    4    9    7
 0.1494751285678915    4    4    9    9
 -0.009905044734539179    4    4   10    2
 -0.0006895170831947941    4    4   10    4
 -0.002879386491267591    4    4   10    6
 0.004145434428905094    4    4   10    8
 0.1456116002428858    4    4   10   10
 -5.146278225651716e-05    4    4   11    1
 -0.01008539696096849    4    4   11    3
 0.001730983807145015    4    4   11    5
 0.002891930841441935    4    4   11    7
 0.005421309414725032    4    4   11    9
 0.1467681370827199    4    4   11   11
 0.0002092178374977652    4    4   12    2
 0.01042019219634539    4    4   12    4
 0.001770286801012126    4    4   12    6
 -0.0008363729714221284    4    4   12    8
 0.005177554856034111    4    4   12   10
 0.1497495348966235    4    4   12   12
 9.238338228392508e-05    4    4   13    1
 0.0004529218095730696    4    4   13    3
 -0.01012741527633525    4    4   13    5
 -0.0008329716023937103    4    4   13    7
 -0.0003376678732940896    4    4   13    9
 0.002387573210967159    4    4   13   11
 0.1538942755879294    4    4   13   13
 -0.0002947371207989792    4    4   14    2
 -0.0001606390565250153    4    4   14    4
 -0.008356414520986729    4    4   14    6
 0.00364886447131425    4    4   14    8
 0.004770115047451211    4    4   14   10
 -0.0007209240967837511    4    4   14   12
 0.1444255682478774    4    4   14   14
 -3.642939387468979e-06    4    4   15    2
 -0.0001700071487798249    4    4   15    4
 -0.004083121169643309    4    4   15    6
 -0.00822595796510853    4    4   15    8
 -0.005278849413532156    4    4   15   10
 -0.002470824236785054    4    4   15   12
 -4.922155807898773e-05    4    4   15   14
 0.1549865850976423    4    4   15   15
 -0.0001637561722495875    4    4   16    1
 -0.0001429452402033733    4    4   16    3
 -0.0004854114298468072    4    4   16    5
 0.00887467809602783    4    4   16    7
 -0.003205169588935368    4    4   16    9
 0.006146594803347697    4    4   16   11
 0.006627448169851851    4    4   16   13
 0.1495063111024891    4    4   16   16
 0.000281855960747602    5    1    1    1
 0.0228462264323538    5    1    2    2
 0.0222375378275133    5    1    3    1
 -0.01190021317040291    5    1    3    3
 -0.01270686363169231    5    1    4    2
 0.001392847395636519    5    1    4    4
 0.03417910630170424    5    1    5    1
 -0.0005901547587912079    5    1    5    3
 0.002326591340254088    5    1    5    5
 -0.01927331523093866    5    1    6    2
 0.001317894487825324    5    1    6    4
 -0.006771021106847107    5    1    6    6
 -0.01530705026498148    5    1    7    1
 0.0170659701331461    5    1    7    3
 -0.008654569870876332    5    1    7    5
 0.009005866924624377    5    1    7    7
 -0.01611771541044009    5    1    8    2
 0.02666050370759863    5    1    8    4
 -0.00869473255999333    5    1    8    6
 0.001808368343238488    5    1    8    8
 0.001739838581840521    5    1    9    1
 -0.0152497148484294    5    1    9    3
 -0.01835886274211943    5    1    9    5