 &FCI NORB=  16,NELEC=16,MS2=0,
  ORBSYM=1,1,1,1,1,1,1,1,1,1,1,1,1,1,1,1,
  ISYM=1,
 &END
 0.6188884356117145    1    1    1    1
 0.0001938483266588974    1    1    2    1
 0.08521641593027708    1    1    2    2
 6.66056816031071e-05    1    1    3    1
 -0.0001502292564010528    1    1    3    2
 0.07246492987738369    1    1    3    3
 9.879496052658392e-05    1    1    4    1
 1.706157059022088e-06    1    1    4    2
 1.375244100256834e-06    1    1    4    3
 0.07243907648566192    1    1    4    4
 5.308266226041306e-05    1    1    5    1
 -0.0003339926309168729    1    1    5    2
 -2.977606802374519e-05    1    1    5    3
 -2.508889560224616e-06    1    1    5    4
 0.1077613443465321    1    1    5    5
 0.0001257493266652732    1    1    6    1
 1.720057945756538e-06    1    1    6    2
 9.874939038016319e-07    1    1    6    3
 -0.0001280970579547068    1    1    6    4
 -1.782699166641999e-06    1    1    6    5
 0.06216688365460488    1    1    6    6
 4.258769267797926e-05    1    1    7    1
 -2.35178213020214e-05    1    1    7    2
 1.084579997877328e-05    1    1    7    3
 6.72848603896701e-07    1    1    7    4
 5.511350093343731e-07    1    1    7    5
 4.841338634197523e-07    1    1    7    6
 0.05433231478653022    1    1    7    7
 0.0003585123607099941    1    1    8    1
 -0.0002755002123270591    1    1    8    2
 -2.722312062508828e-06    1    1    8    3
 -7.142507643400608e-06    1    1    8    4
 0.0001079495193951795    1    1    8    5
 -7.149220476727109e-06    1    1    8    6
 -2.080390302768596e-05    1    1    8    7
 0.2062877869167865    1    1    8    8
 0.007064962617854224    1    1    9    1
 3.850377383765131e-05    1    1    9    2
 4.236574752171128e-05    1    1    9    3
 8.763704033527363e-05    1    1    9    4
 -9.393720613433689e-05    1    1    9    5
 4.266035325796687e-05    1    1    9    6
 1.756585829007422e-05    1    1    9    7
 0.0002574813935983857    1    1    9    8
 0.3282837921767385    1    1    9    9
 -0.0004664881456132169    1    1   10    1
 -5.292572887877982e-06    1    1   10    2
 -4.65316006609286e-06    1    1   10    3
 -1.827138335730052e-05    1    1   10    4
 8.9837580893042e-06    1    1   10    5
 4.062526164308038e-05    1    1   10    6
 -2.138717225379902e-06    1    1   10    7
 1.603305000301731e-05    1    1   10    8
 -0.0005841350401924905    1    1   10    9
 0.1077482157368497    1    1   10   10
 -6.043439745676872e-05    1    1   11    1
 -3.238335014098141e-05    1    1   11    2
 -0.0001130987611464007    1    1   11    3
 -5.949213027816348e-07    1    1   11    4
 6.787054724702271e-05    1    1   11    5
 -5.860154103384377e-07    1    1   11    6
 7.297912192680919e-05    1    1   11    7
 3.727878108315982e-05    1    1   11    8
 -1.276670625274614e-05    1    1   11    9
 1.831699988350531e-06    1    1   11   10
 0.06154065039825304    1    1   11   11
 -0.001363777528943007    1    1   12    1
 -7.485681850437997e-06    1    1   12    2
 -4.441320059087198e-06    1    1   12    3
 -0.0001208349352817276    1    1   12    4
 1.033896566257454e-05    1    1   12    5
 -2.613390649024227e-06    1    1   12    6
 -2.026903625872742e-06    1    1   12    7
 2.975630533470259e-05    1    1   12    8
 -0.0007378547797449882    1    1   12    9
 0.0005031285878624506    1    1   12   10
 2.175577598503768e-06    1    1   12   11
 0.1412163966572065    1    1   12   12
 0.001116365168334805    1    1   13    1
 9.739000140476213e-05    1    1   13    2
 -7.399990869638103e-05    1    1   13    3
 5.777470990510312e-06    1    1   13    4
 0.0004921640405840521    1    1   13    5
 6.320155130171017e-06    1    1   13    6
 3.016153079693505e-06    1    1   13    7
 -0.001713290890671697    1    1   13    8
 3.67131947998527e-05    1    1   13    9
 -1.697544534088389e-05    1    1   13   10
 4.640973945591774e-06    1    1   13   11
 -2.118059643698758e-05    1    1   13   12
 0.1371829000896738    1    1   13   13
 0.0003297859235297144    1    1   14    1
 3.62264787958606e-06    1    1   14    2
 1.97537589735322e-06    1    1   14    3
 0.0001532199612877162    1    1   14    4
 -3.755582941072907e-06    1    1   14    5
 3.820501086126754e-05    1    1   14    6
 9.552666927360965e-07    1    1   14    7
 -1.856395079895263e-05    1    1   14    8
 3.427884032649865e-05    1    1   14    9
 0.0003472288416068677    1    1   14   10
 -1.14609694266455e-06    1    1   14   11
 -0.0001270520927254245    1    1   14   12
 1.432541444106903e-05    1    1   14   13
 0.08681763360609943    1    1   14   14
 -0.002554095540805128    1    1   15    1
 5.762950438673135e-05    1    1   15    2
 3.920040903962393e-05    1    1   15    3
 -1.326676940187775e-05    1    1   15    4
 -0.000433385848653579    1    1   15    5
 -2.241674744605405e-05    1    1   15    6
 6.97218693367119e-06    1    1   15    7
 -0.002205001963680432    1    1   15    8
 0.0002557309251427448    1    1   15    9
 4.670624609147903e-05    1    1   15   10
 -1.265883821304957e-06    1    1   15   11
 1.210611293528949e-05    1    1   15   12
 -0.000363541031127717    1    1   15   13
 -5.284102363215863e-05    1    1   15   14
 0.3112931799340017    1    1   15   15
 0.002206543854782507    1    1   16    1
 1.713619573894949e-05    1    1   16    2
 1.904454351618557e-05    1    1   16    3
 -2.753503410311956e-05    1    1   16    4
 -3.072838147930461e-05    1    1   16    5
 1.930357526008124e-06    1    1   16    6
 8.161021393017832e-06    1    1   16    7
 1.994633740903714e-05    1    1   16    8
 0.001831182358308321    1    1   16    9
 -1.146104728946985e-05    1    1   16   10
 -6.188388214994399e-06    1    1   16   11
 0.001867721242667801    1    1   16   12
 7.981071641150993e-05    1    1   16   13
 -0.0001865213153329031    1    1   16   14
 -0.0007655985325464648    1    1   16   15
 0.206280408837184    1    1   16   16
 0.0001938483266588971    2    1    1    1
 3.903922271005866e-07    2    1    2    1
 0.0001931868587330659    2    1    2    2
 6.236911680766946e-08    2    1    3    1
 -5.41032723490057e-06    2    1    3    2
 9.196712991488784e-05    2    1    3    3
 9.671526894323941e-08    2    1    4    1
 -1.047364298834776e-08    2    1    4    2
 1.724108769813669e-09    2    1    4    3
 4.188902606184131e-06    2    1    4    4
 -4.954666067207225e-08    2    1    5    1
 -8.788666460163206e-06    2    1    5    2
 5.522310825111364e-07    2    1    5    3
 1.673456817303327e-09    2    1    5    4
 -5.072651569212587e-05    2    1    5    5
 1.158394736643071e-07    2    1    6    1
 -1.421300239115436e-08    2    1    6    2
 3.529502085847584e-09    2    1    6    3
 -2.562800738024034e-08    2    1    6    4
 3.492168175798979e-09    2    1    6    5
 2.93360749457812e-06    2    1    6    6
 4.91435038378173e-08    2    1    7    1
 -7.548979401122365e-07    2    1    7    2
 3.303107623062834e-07    2    1    7    3
 1.487600257352047e-10    2    1    7    4
 1.344274543217985e-08    2    1    7    5
 2.084832582032204e-10    2    1    7    6
 1.864181931071254e-05    2    1    7    7
 -8.046976392190607e-07    2    1    8    1
 -1.274452644188544e-06    2    1    8    2
 1.24350058867128e-07    2    1    8    3
 1.519135291993085e-09    2    1    8    4
 1.167168970813674e-07    2    1    8    5
 5.182735229874639e-09    2    1    8    6
 6.449507774101667e-09    2    1    8    7
 -7.87659711234519e-05    2    1    8    8
 5.288475594558345e-06    2    1    9    1
 -7.067393948753156e-08    2    1    9    2
 6.012332299231299e-08    2    1    9    3
 4.710321989383347e-08    2    1    9    4
 -3.304488076171008e-08    2    1    9    5
 2.225427008785414e-08    2    1    9    6
 1.446675741729107e-08    2    1    9    7
 -1.223714728475802e-07    2    1    9    8
 9.048907839555308e-05    2    1    9    9
 -3.586003771296513e-07    2    1   10    1
 2.528374666079269e-08    2    1   10    2
 -4.695051910414661e-09    2    1   10    3
 -4.695629822464207e-09    2    1   10    4
 -3.861150979373863e-09    2    1   10    5
 1.01986664451933e-08    2    1   10    6
 -5.448927169178759e-10    2    1   10    7
 -7.182372277339363e-09    2    1   10    8
 -2.916529097265719e-07    2    1   10    9
 1.017495557005483e-05    2    1   10   10
 -5.558951448920755e-08    2    1   11    1
 2.020631102761529e-06    2    1   11    2
 -9.419287925453262e-07    2    1   11    3
 -2.200380179599749e-10    2    1   11    4
 -5.346605254247113e-07    2    1   11    5
 -4.375837981007999e-10    2    1   11    6
 9.684980680775839e-07    2    1   11    7
 -2.758543563660693e-08    2    1   11    8
 -1.28438415663074e-08    2    1   11    9
 6.948145798313694e-10    2    1   11   10
 3.968369406789022e-05    2    1   11   11
 -8.120861801185377e-07    2    1   12    1
 5.791303625447846e-08    2    1   12    2
 -1.604207174318728e-08    2    1   12    3
 -3.738789113966358e-08    2    1   12    4
 -1.479626678474266e-08    2    1   12    5
 -1.256454476429103e-09    2    1   12    6
 -1.188530411987722e-09    2    1   12    7
 -2.394879725022314e-08    2    1   12    8
 -3.166995677323753e-07    2    1   12    9
 1.782302157776318e-07    2    1   12   10
 2.164408556435896e-09    2    1   12   11
 1.811116925717369e-05    2    1   12   12
 1.243164272042233e-06    2    1   13    1
 8.417635987286656e-07    2    1   13    2
 -1.555165288230935e-07    2    1   13    3
 2.53109953886791e-09    2    1   13    4
 1.932963480714987e-07    2    1   13    5
 1.948011861019827e-09    2    1   13    6
 1.634279604378149e-08    2    1   13    7
 7.083456603926849e-07    2    1   13    8
 1.164637940463868e-07    2    1   13    9
 -7.579689288974769e-09    2    1   13   10
 -5.279539564798765e-08    2    1   13   11
 -6.429256382445695e-09    2    1   13   12
 -7.994892439550414e-05    2    1   13   13
 2.82086892494944e-07    2    1   14    1
 -3.004951875248004e-08    2    1   14    2
 7.550650402674312e-09    2    1   14    3
 3.628127834483484e-08    2    1   14    4
 7.650653267976666e-09    2    1   14    5
 7.192538596124287e-09    2    1   14    6
 4.373195286861014e-10    2    1   14    7
 1.193969307756107e-08    2    1   14    8
 2.253873187999515e-08    2    1   14    9
 1.029364330729888e-07    2    1   14   10
 -9.248413302808825e-10    2    1   14   11
 -3.747340563864374e-08    2    1   14   12
 3.52913742904894e-09    2    1   14   13
 6.344488713202791e-06    2    1   14   14
 -8.500755868510134e-06    2    1   15    1
 -5.523154574973503e-08    2    1   15    2
 4.022704465818285e-08    2    1   15    3
 -1.50976955091105e-08    2    1   15    4
 -7.735723958500531e-09    2    1   15    5
 -1.612216370882807e-08    2    1   15    6
 -1.0630357174184e-08    2    1   15    7
 -1.811776676693153e-07    2    1   15    8
 -5.327623271373129e-07    2    1   15    9
 5.964442040337786e-08    2    1   15   10
 3.372931239498764e-09    2    1   15   11
 1.843880517186375e-08    2    1   15   12
 -1.017634364907175e-07    2    1   15   13
 -3.016448502357744e-08    2    1   15   14
 -4.670615719414779e-05    2    1   15   15
 2.059475599286126e-06    2    1   16    1
 -6.170227170103783e-08    2    1   16    2
 1.426997476474056e-08    2    1   16    3
 -1.4277378667178e-08    2    1   16    4
 5.6681659811604e-09    2    1   16    5
 -2.807216943314459e-09    2    1   16    6
 2.185546117525083e-09    2    1   16    7
 5.94526854121815e-08    2    1   16    8
 9.916142208652523e-07    2    1   16    9
 1.821309209331297e-08    2    1   16   10
 -2.085225108605262e-09    2    1   16   11
 9.224240401900778e-07    2    1   16   12
 2.763323283772276e-08    2    1   16   13
 -7.899387040617708e-08    2    1   16   14
 -5.340886423987099e-07    2    1   16   15
 3.871338893929356e-05    2    1   16   16
 0.08521641593027707    2    2    1    1
 0.0001931868587330662    2    2    2    1
 0.6186849831331025    2    2    2    2
 -4.144598527525848e-05    2    2    3    1
 -0.007074140294870902    2    2    3    2
 0.328475629197474    2    2    3    3
 -1.682830442708552e-06    2    2    4    1
 -1.107147766912899e-05    2    2    4    2
 1.922932913180253e-06    2    2    4    3
 0.03947603100154969    2    2    4    4
 5.972197685895371e-05    2    2    5    1
 -0.002431576523523975    2    2    5    2
 -0.0002484770474360636    2    2    5    3
 1.980583170780499e-06    2    2    5    4
 0.3112383351987962    2    2    5    5
 -1.431179772600201e-06    2    2    6    1
 -1.284633603152814e-05    2    2    6    2
 4.726600811715418e-06    2    2    6    3
 -2.243741545475669e-05    2    2    6    4
 -1.237474563603477e-06    2    2    6    5
 0.03634172437021219    2    2    6    6
 -8.240258482757431e-06    2    2    7    1
 -0.00126590940661553    2    2    7    2
 0.0007441925955508276    2    2    7    3
 3.551736604372553e-07    2    2    7    4
 5.823923824788413e-06    2    2    7    5
 6.586293493747085e-07    2    2    7    6
 0.1401848007723276    2    2    7    7
 -9.66670810308162e-05    2    2    8    1
 -0.001104664999552184    2    2    8    2
 4.279131506527545e-05    2    2    8    3
 2.851382156352332e-06    2    2    8    4
 0.0003547230723830527    2    2    8    5
 1.62248907863674e-06    2    2    8    6
 2.250496787617008e-05    2    2    8    7
 0.1371689858731294    2    2    8    8
 0.0001498161348793573    2    2    9    1
 -6.864646204041966e-05    2    2    9    2
 4.523008892792789e-05    2    2    9    3
 4.053453148256003e-06    2    2    9    4
 -4.065370442519416e-05    2    2    9    5
 2.147200749182906e-06    2    2    9    6
 5.584176740841259e-06    2    2    9    7
 -7.511895110490341e-05    2    2    9    8
 0.07245975618797384    2    2    9    9
 -1.160335453164198e-06    2    2   10    1
 2.63378313659587e-05    2    2   10    2
 -5.191908661040353e-06    2    2   10    3
 -7.474349978168123e-06    2    2   10    4
 -3.549053872066172e-06    2    2   10    5
 5.658167109614848e-06    2    2   10    6
 -9.431264582117401e-07    2    2   10    7
 -3.998162922667543e-06    2    2   10    8
 -2.652763291984173e-05    2    2   10    9
 0.04811930234121124    2    2   10   10
 1.821163491000296e-05    2    2   11    1
 0.002090990579108676    2    2   11    2
 -0.001807875061252999    2    2   11    3
 -1.036372013808946e-06    2    2   11    4
 -0.0007552052919047396    2    2   11    5
 -1.982529420844165e-06    2    2   11    6
 0.00192661248627326    2    2   11    7
 -7.973766279765701e-05    2    2   11    8
 -1.942601589198952e-05    2    2   11    9
 2.726984854703144e-06    2    2   11   10
 0.2061248191271571    2    2   11   11
 -2.448726582037914e-05    2    2   12    1
 4.836889938888414e-05    2    2   12    2
 -2.106049944651159e-05    2    2   12    3
 -1.284865102380964e-05    2    2   12    4
 8.888635865564596e-06    2    2   12    5
 2.191515764511747e-07    2    2   12    6
 -2.839452076268365e-06    2    2   12    7
 -1.663579653209962e-06    2    2   12    8
 -1.138009789381982e-05    2    2   12    9
 5.068750525772785e-05    2    2   12   10
 9.047579959646613e-06    2    2   12   11
 0.05451441263594448    2    2   12   12
 0.0002767283796948102    2    2   13    1
 -0.0003244478006916399    2    2   13    2
 0.0002347361662368405    2    2   13    3
 -5.686195268709549e-06    2    2   13    4
 0.002216128179321072    2    2   13    5
 -6.492410360067469e-06    2    2   13    6
 -3.664500711584192e-05    2    2   13    7
 -0.001713829048369914    2    2   13    8
 -2.271956732963041e-06    2    2   13    9
 1.318954995290782e-05    2    2   13   10
 -2.27235386459505e-05    2    2   13   11
 2.177820054002847e-05    2    2   13   12
 0.2062541404638303    2    2   13   13
 -1.120623814103241e-06    2    2   14    1
 -2.638925786092951e-05    2    2   14    2
 1.034224629781244e-05    2    2   14    3
 2.680127634398768e-05    2    2   14    4
 -3.568103213893242e-06    2    2   14    5
 2.899567485756195e-06    2    2   14    6
 1.437391794527093e-06    2    2   14    7
 3.173659007977706e-06    2    2   14    8
 -6.315894808311663e-08    2    2   14    9
 3.229103106973791e-05    2    2   14   10
 -4.292611721508404e-06    2    2   14   11
 -5.40424799316728e-06    2    2   14   12
 -1.350313294351204e-05    2    2   14   13
 0.04367449908054682    2    2   14   14
 -0.0003349788611894377    2    2   15    1
 4.727889183110129e-05    2    2   15    2
 9.99882162041134e-05    2    2   15    3
 3.386813010503995e-06    2    2   15    4
 -0.0004345337633887593    2    2   15    5
 3.437351497527217e-06    2    2   15    6
 1.282874465424093e-05    2    2   15    7
 -0.0004920536846044    2    2   15    8
 2.969429381787441e-05    2    2   15    9
 -1.017493107119941e-05    2    2   15   10
 -3.14445934520615e-05    2    2   15   11
 3.634336350369209e-08    2    2   15   12
 -0.0001088661091268277    2    2   15   13
 5.474697388675581e-06    2    2   15   14
 0.1077482157824575    2    2   15   15
 -3.20013660472687e-05    2    2   16    1
 -6.321869214448218e-05    2    2   16    2
 1.492663536374719e-05    2    2   16    3
 -5.306695695716946e-07    2    2   16    4
 -2.279746774917977e-06    2    2   16    5
 7.59201571349768e-07    2    2   16    6
 2.639598950696565e-06    2    2   16    7
 -4.351895718208925e-06    2    2   16    8
 0.0001134667589549011    2    2   16    9
 -1.413410558278855e-05    2    2   16   10
 -7.093325313943967e-06    2    2   16   11
 6.311569712583465e-05    2    2   16   12
 -3.925405738450533e-05    2    2   16   13
 -1.083889547755235e-05    2    2   16   14
 6.849478285569029e-05    2    2   16   15
 0.06155416589242314    2    2   16   16
 6.660568160310678e-05    3    1    1    1
 6.236911680766927e-08    3    1    2    1
 -4.144598527525832e-05    3    1    2    2
 1.356496207398508e-07    3    1    3    1
 8.235726880378275e-06    3    1    3    2
 -0.0001165159271036657    3    1    3    3
 4.794301592099971e-08    3    1    4    1
 1.668029113834043e-09    3    1    4    2
 -4.726140193318962e-09    3    1    4    3
 2.210239386775144e-06    3    1    4    4
 -2.864607950324144e-08    3    1    5    1
 1.046714129462555e-06    3    1    5    2
 -1.725854639664125e-06    3    1    5    3
 -1.667487275733461e-10    3    1    5    4
 -1.743527848324788e-05    3    1    5    5
 5.667035080592458e-08    3    1    6    1
 2.370078682873395e-09    3    1    6    2
 -1.006422295827139e-08    3    1    6    3
 -1.676495768337092e-08    3    1    6    4
 1.163501811518158e-10    3    1    6    5
 1.510092417072213e-06    3    1    6    6
 2.801826940016862e-08    3    1    7    1
 1.471182784812818e-07    3    1    7    2
 -3.888284326338171e-08    3    1    7    3
 2.414824959786932e-11    3    1    7    4
 1.207571752201566e-09    3    1    7    5
 3.653875679327387e-11    3    1    7    6
 6.792669506171179e-06    3    1    7    7
 -7.134420624262838e-08    3    1    8    1
 2.496726413755773e-07    3    1    8    2
 -3.00932413061966e-07    3    1    8    3
 7.738646827796129e-10    3    1    8    4
 4.805382541107801e-08    3    1    8    5
 1.799052442654003e-09    3    1    8    6
 4.148959059471419e-09    3    1    8    7
 -3.076332958359185e-05    3    1    8    8
 2.428042724713554e-06    3    1    9    1
 3.371030356517286e-08    3    1    9    2
 -7.669540078334543e-08    3    1    9    3
 2.396267708229351e-08    3    1    9    4
 -4.105353962841771e-08    3    1    9    5
 8.606602563440746e-09    3    1    9    6
 7.733937847318994e-09    3    1    9    7
 -2.308097771809167e-07    3    1    9    8
 4.577472055921552e-05    3    1    9    9
 -1.699158107882011e-07    3    1   10    1
 -4.199183367780681e-09    3    1   10    2
 1.148663141098358e-08    3    1   10    3
 5.599760514432888e-10    3    1   10    4
 7.866149694913559e-10    3    1   10    5
 6.027405278866991e-09    3    1   10    6
 -1.556430260908962e-10    3    1   10    7
 -1.945443290040007e-09    3    1   10    8
 -1.350755673456557e-07    3    1   10    9
 5.474703014135172e-06    3    1   10   10
 -3.439530878937192e-08    3    1   11    1
 -4.242967765065569e-07    3    1   11    2
 5.84360061145947e-06    3    1   11    3
 2.304600019203192e-10    3    1   11    4
 1.295276104232651e-07    3    1   11    5
 5.220773335589351e-10    3    1   11    6
 -8.31798069800389e-07    3    1   11    7
 6.960275744683326e-09    3    1   11    8
 5.724780561586637e-10    3    1   11    9
 -5.339573555682813e-10    3    1   11   10
 -2.568014179596978e-06    3    1   11   11
 -2.703897088036913e-07    3    1   12    1
 -9.973087520205813e-09    3    1   12    2
 4.34903980422872e-08    3    1   12    3
 -2.057495326976934e-08    3    1   12    4
 1.007101932850434e-10    3    1   12    5
 -6.992896062870176e-10    3    1   12    6
 -3.801223364081859e-10    3    1   12    7
 -7.12595229843282e-09    3    1   12    8
 -1.985922076706804e-07    3    1   12    9
 8.385240043459639e-08    3    1   12   10
 -2.209468725794697e-09    3    1   12   11
 9.609998416084987e-06    3    1   12   12
 6.573476943357411e-07    3    1   13    1
 -2.05964715923054e-07    3    1   13    2
 7.45012861013771e-07    3    1   13    3
 3.643097451464462e-10    3    1   13    4
 -1.194184124435177e-06    3    1   13    5
 1.064967346779359e-10    3    1   13    6
 6.08545487878091e-09    3    1   13    7
 3.58281874486386e-07    3    1   13    8
 7.341892156204876e-08    3    1   13    9
 -1.67011848039901e-09    3    1   13   10
 -3.39182492529222e-08    3    1   13   11
 -7.884210858236748e-10    3    1   13   12
 -2.146473251399957e-05    3    1   13   13
 1.3154715382785e-07    3    1   14    1
 4.932279835744827e-09    3    1   14    2
 -2.134205705237721e-08    3    1   14    3
 1.713485993239229e-08    3    1   14    4
 3.764792113902936e-10    3    1   14    5
 5.067625320422458e-09    3    1   14    6
 7.421910366603609e-11    3    1   14    7
 4.447841048559402e-09    3    1   14    8
 1.028258714274809e-08    3    1   14    9
 6.88285762095015e-08    3    1   14   10
 1.115135001978223e-09    3    1   14   11
 -2.561207957140082e-08    3    1   14   12
 -1.054146769436945e-10    3    1   14   13
 3.306080913888455e-06    3    1   14   14
 -7.171801850377267e-06    3    1   15    1
 -1.38217612987677e-08    3    1   15    2
 -2.345551723593537e-07    3    1   15    3
 -7.292427163587872e-09    3    1   15    4
 1.476895392407178e-07    3    1   15    5
 -5.878145268054876e-09    3    1   15    6
 -9.228160880573754e-09    3    1   15    7
 3.380831925024988e-07    3    1   15    8
 -1.099205583755413e-07    3    1   15    9
 3.016446981148759e-08    3    1   15   10
 1.82543491131686e-08    3    1   15   11
 -4.14677394221619e-09    3    1   15   12
 -2.719859903279374e-08    3    1   15   13
 -8.928502530302333e-09    3    1   15   14
 -5.284100961366728e-05    3    1   15   15
 1.307206392161948e-06    3    1   16    1
 1.042384126347869e-08    3    1   16    2
 -2.768976946012949e-08    3    1   16    3
 -1.019040344433245e-08    3    1   16    4
 -4.00114064829082e-09    3    1   16    5
 -2.484227463172246e-09    3    1   16    6
 6.636489772771655e-10    3    1   16    7
 -2.052457255153212e-09    3    1   16    8
 2.708222598327477e-08    3    1   16    9
 3.292622526392219e-08    3    1   16   10
 1.39917252708354e-09    3    1   16   11
 6.247220664128092e-07    3    1   16   12
 6.22580123960624e-09    3    1   16   13
 -4.82401289653396e-08    3    1   16   14
 -2.266941478597772e-07    3    1   16   15
 2.171827049624756e-05    3    1   16   16
 -0.0001502292564010438    3    2    1    1
 -5.410327234900627e-06    3    2    2    1
 -0.007074140294870884    3    2    2    2
 8.235726880378253e-06    3    2    3    1
 0.004803850059345508    3    2    3    2
 -0.007499973482345679    3    2    3    3
 7.260400716269738e-09    3    2    4    1
 3.417153891297531e-07    3    2    4    2
 -4.860254159386238e-07    3    2    4    3
 -1.860604848557732e-05    3    2    4    4
 -1.542975989523221e-06    3    2    5    1
 1.312059715970544e-05    3    2    5    2
 -0.0002576932939850076    3    2    5    3
 1.083773600102985e-07    3    2    5    4
 -0.002209408857919115    3    2    5    5
 7.397478512127495e-09    3    2    6    1
 4.137926836102265e-07    3    2    6    2
 -9.749336353519436e-07    3    2    6    3
 2.583164693151692e-08    3    2    6    4
 2.211330477764797e-07    3    2    6    5
 -1.609516245217229e-05    3    2    6    6
 3.713508149764135e-07    3    2    7    1
 8.474772105699327e-05    3    2    7    2
 0.0001196828278508721    3    2    7    3
 -2.386157599434636e-08    3    2    7    4
 -8.513736473184044e-06    3    2    7    5
 -4.690015662134195e-08    3    2    7    6
 -0.001799273327195401    3    2    7    7
 2.836761514466104e-06    3    2    8    1
 6.551778957423833e-06    3    2    8    2
 -4.511327976179264e-05    3    2    8    3
 -1.695858187019983e-08    3    2    8    4
 -1.548191340515246e-05    3    2    8    5
 -8.257568145546584e-09    3    2    8    6
 -1.328287764123569e-06    3    2    8    7
 -0.0004927971369979272    3    2    8    8
 -3.843307362061997e-07    3    2    9    1
 2.734541817520349e-06    3    2    9    2
 -8.764522502300933e-06    3    2    9    3
 -2.257200433038923e-08    3    2    9    4
 2.802740239096648e-06    3    2    9    5
 -1.484560668069751e-08    3    2    9    6
 -4.146394242786641e-07    3    2    9    7
 8.534232964689311e-07    3    2    9    8
 -0.0001161125442358296    3    2    9    9
 -1.397618745494605e-08    3    2   10    1
 -8.298348476132745e-07    3    2   10    2
 1.203065910350056e-06    3    2   10    3
 8.656720337835256e-08    3    2   10    4
 -3.088423650027284e-07    3    2   10    5
 -1.654788567657624e-08    3    2   10    6
 5.85312211455121e-08    3    2   10    7
 1.79655977109466e-08    3    2   10    8
 1.714222999002615e-07    3    2   10    9
 -3.22911775256509e-05    3    2   10   10
 1.537534381438197e-08    3    2   11    1
 -0.0002447224376141987    3    2   11    2
 2.066206547226853e-05    3    2   11    3
 -1.521786132588785e-08    3    2   11    4
 -3.520939952485373e-05    3    2   11    5
 -1.819488411181462e-08    3    2   11    6
 6.253417724284995e-05    3    2   11    7
 -2.734244138718661e-07    3    2   11    8
 -1.188117542903231e-07    3    2   11    9
 3.273280833892264e-08    3    2   11   10
 -0.002235706753021918    3    2   11   11
 1.498945740776245e-07    3    2   12    1
 -1.546600319394815e-06    3    2   12    2
 4.267572379787861e-06    3    2   12    3
 5.436319597271915e-08    3    2   12    4
 -1.052994410608788e-06    3    2   12    5
 -4.021589735329856e-09    3    2   12    6
 2.02073395810688e-07    3    2   12    7
 -3.804435538518765e-08    3    2   12    8
 -1.781783568846091e-07    3    2   12    9
 -3.739560717228715e-07    3    2   12   10
 7.450432963453174e-08    3    2   12   11
 -5.186701826289291e-05    3    2   12   12
 -6.687177959028039e-06    3    2   13    1
 0.0001278750282352001    3    2   13    2
 9.428682370143956e-05    3    2   13    3
 1.39375090588425e-07    3    2   13    4
 6.803805463571742e-05    3    2   13    5
 1.639789218259893e-07    3    2   13    6
 1.910335564921763e-06    3    2   13    7
 6.918611960366109e-05    3    2   13    8
 7.994452278544836e-08    3    2   13    9
 -3.390385704211269e-07    3    2   13   10
 -6.966323701317082e-06    3    2   13   11
 -6.285792574749804e-07    3    2   13   12
 -0.001865980937394131    3    2   13   13
 1.796916623673545e-09    3    2   14    1
 8.63902556677351e-07    3    2   14    2
 -2.059872198569732e-06    3    2   14    3
 -1.388811556737227e-07    3    2   14    4
 4.770501777159428e-07    3    2   14    5
 3.933401393322238e-08    3    2   14    6
 -9.948320750200521e-08    3    2   14    7
 -1.42569313745832e-08    3    2   14    8
 7.857181261486542e-09    3    2   14    9
 -3.980101314716838e-08    3    2   14   10
 -3.828066189668238e-08    3    2   14   11
 -7.510566640174551e-08    3    2   14   12
 3.534032397662001e-07    3    2   14   13
 -2.745108963408746e-05    3    2   14   14
 6.519087689924535e-06    3    2   15    1
 8.908897095103826e-07    3    2   15    2
 -1.717786953508281e-05    3    2   15    3
 -3.581722920356057e-08    3    2   15    4
 8.286699781320067e-06    3    2   15    5
 -3.813547594232067e-08    3    2   15    6
 -8.247682343184266e-07    3    2   15    7
 1.691478085123716e-06    3    2   15    8
 5.398118675497761e-07    3    2   15    9
 1.029364152806626e-07    3    2   15   10
 2.015000237110474e-07    3    2   15   11
 -1.483796257130394e-08    3    2   15   12
 -3.510340091976651e-06    3    2   15   13
 -6.882862204072696e-08    3    2   15   14
 -0.0003472295269313122    3    2   15   15
 6.271294584466992e-07    3    2   16    1
 2.203103398321259e-06    3    2   16    2
 -2.886625972861489e-06    3    2   16    3
 -5.604769934941304e-09    3    2   16    4
 8.901649430016944e-07    3    2   16    5
 -1.185878507242607e-09    3    2   16    6
 -1.428464426811483e-07    3    2   16    7
 -2.148147145966869e-08    3    2   16    8
 -1.282654434562215e-06    3    2   16    9
 2.05775166217446e-07    3    2   16   10
 -5.468171173663794e-08    3    2   16   11
 -1.08995014152795e-07    3    2   16   12
 9.400276747244778e-07    3    2   16   13
 4.31126654678384e-08    3    2   16   14
 -7.708200035193178e-07    3    2   16   15
 -6.332782625464969e-05    3    2   16   16
 0.07246492987738369    3    3    1    1
 9.196712991488801e-05    3    3    2    1
 0.328475629197474    3    3    2    2
 -0.0001165159271036654    3    3    3    1
 -0.007499973482345672    3    3    3    2
 0.6200382990174096    3    3    3    3
 -1.233999578727461e-06    3    3    4    1
 -5.288755155467544e-06    3    3    4    2
 5.497149977970257e-06    3    3    4    3
 0.03641928227964535    3    3    4    4
 2.724268483375318e-05    3    3    5    1
 -0.001830659483456247    3    3    5    2