 &FCI NORB=  28,NELEC=28,MS2=0,
  ORBSYM=1,1,1,1,1,1,1,1,1,1,1,1,1,1,1,1,1,1,1,1,1,1,1,1,1,1,1,1,
  ISYM=1,
 &END
 0.1356490279422864    1    1    1    1
 0.1065302835884603    1    1    2    2
 -0.029663644100611    1    1    3    1
 0.1061699593001808    1    1    3    3
 0.03035331993783343    1    1    4    2
 0.1054514639245294    1    1    4    4
 -0.001103147174657022    1    1    5    1
 -0.03065672545150267    1    1    5    3
 0.1048864343599918    1    1    5    5
 0.001129140919395866    1    1    6    2
 -0.03088017569878567    1    1    6    4
 0.1044224109391931    1    1    6    6
 -0.000170796697720221    1    1    7    1
 -0.001084154158925408    1    1    7    3
 -0.03105457559435562    1    1    7    5
 0.1039938043366997    1    1    7    7
 -0.0002167797116810963    1    1    8    2
 0.001026654417041984    1    1    8    4
 0.03120447717987752    1    1    8    6
 0.1035546461936782    1    1    8    8
 6.563406618292651e-05    1    1    9    1
 0.0002289053306712228    1    1    9    3
 0.0009528332225545418    1    1    9    5
 0.03134395385472213    1    1    9    7
 0.1030635866384443    1    1    9    9
 -9.377590212251123e-05    1    1   10    2
 0.0002220600026233569    1    1   10    4
 0.0008551316137100154    1    1   10    6
 -0.03147983065589239    1    1   10    8
 0.1024706629576349    1    1   10   10
 -3.309327271922621e-05    1    1   11    1
 -0.000102627303241753    1    1   11    3
 -0.0001977632321002818    1    1   11    5
 -0.0007225373597610643    1    1   11    7
 0.0316110956016291    1    1   11    9
 0.1016964511588631    1    1   11   11
 4.629698904044105e-05    1    1   12    2
 -9.688401542159693e-05    1    1   12    4
 -0.0001536473391565048    1    1   12    6
 0.0005397765426102853    1    1   12    8
 0.03172633035398101    1    1   12   10
 0.1005843514506136    1    1   12   12
 -1.501220799354427e-05    1    1   13    1
 -4.488513309170578e-05    1    1   13    3
 -7.575456211703828e-05    1    1   13    5
 -8.758062037995951e-05    1    1   13    7
 0.0002976327292556515    1    1   13    9
 -0.03182357842698696    1    1   13   11
 0.09913455398133267    1    1   13   13
 -1.460572563260977e-05    1    1   14    2
 2.960957619502214e-05    1    1   14    4
 3.956273250034785e-05    1    1   14    6
 -1.217718858570645e-05    1    1   14    8
 -6.47222684560275e-05    1    1   14   10
 0.03181448105931546    1    1   14   12
 0.1287010199290811    1    1   14   14
 8.267759609380775e-07    1    1   15    1
 1.849062468144754e-06    1    1   15    3
 -3.554023873948188e-06    1    1   15    5
 -3.716914583085356e-05    1    1   15    7
 0.0002786059264112094    1    1   15    9
 -0.002333392627770881    1    1   15   11
 0.01614367752657193    1    1   15   13
 0.1288576902236862    1    1   15   15
 -2.119192038546602e-06    1    1   16    2
 -7.189524887235565e-07    1    1   16    4
 -3.101120978511382e-05    1    1   16    6
 0.0002225973120252868    1    1   16    8
 0.001743134595787366    1    1   16   10
 0.007569788264077994    1    1   16   12
 -0.01583811991956643    1    1   16   14
 0.09810781897642218    1    1   16   16
 -1.130804739281951e-06    1    1   17    1
 8.891780390804516e-08    1    1   17    3
 2.11624916729913e-05    1    1   17    5
 0.0001510291786889235    1    1   17    7
 -0.001135880963903907    1    1   17    9
 -0.00466635010552975    1    1   17   11
 -0.006864108771765015    1    1   17   13
 0.03365073842114366    1    1   17   15
 0.101152921644376    1    1   17   17
 1.148105414018033e-06    1    1   18    2
 -1.449405141011671e-05    1    1   18    4
 -0.000104133992729154    1    1   18    6
 0.0007514855600228197    1    1   18    8
 -0.003147472600908575    1    1   18   10
 0.004054685657951702    1    1   18   12
 0.002964307654301667    1    1   18   14
 -0.03292716160500093    1    1   18   16
 0.1026243601826072    1    1   18   18
 1.250523864269621e-06    1    1   19    1
 1.080410131424053e-05    1    1   19    3
 7.495403124916202e-05    1    1   19    5
 0.0005180919514342086    1    1   19    7
 0.00223602815380104    1    1   19    9
 -0.002622067535581012    1    1   19   11
 0.002217904217476183    1    1   19   13
 -9.722259203128738e-05    1    1   19   15
 -0.03274363882777789    1    1   19   17
 0.1035459139281432    1    1   19   19
 -7.277630745281503e-06    1    1   20    2
 5.587644450600812e-05    1    1   20    4
 0.0003695256807701962    1    1   20    6
 0.00165640289773081    1    1   20    8
 0.001767418302173006    1    1   20   10
 0.001486130931941565    1    1   20   12
 -0.0003005394670685928    1    1   20   14
 6.292467290779091e-05    1    1   20   16
 0.03261876710846223    1    1   20   18
 0.1041319898244926    1    1   20   20
 -3.958508937178078e-06    1    1   21    1
 -4.029495979742856e-05    1    1   21    3
 -0.0002678192237865603    1    1   21    5
 0.001271961855686957    1    1   21    7
 -0.0012275588820457    1    1   21    9
 -0.001018833703666831    1    1   21   11
 -0.000262134656238198    1    1   21   13
 5.63156642765187e-05    1    1   21   15
 0.0002455433881859304    1    1   21   17
 0.03249428113780537    1    1   21   19
 0.1044067700046242    1    1   21   21
 -2.323263342999984e-05    1    1   22    2
 0.0001896828993077232    1    1   22    4
 -0.001010602905968823    1    1   22    6
 0.0008709396159643295    1    1   22    8
 -0.0007321623299385094    1    1   22   10
 0.0001928059378389379    1    1   22   12
 -6.14804616500958e-05    1    1   22   14
 -3.541309529460357e-05    1    1   22   16
 0.0003131994161200621    1    1   22   18
 -0.03236896015243554    1    1   22   20
 0.1041919879136801    1    1   22   22
 2.420632436356479e-06    1    1   23    1
 0.0001015332842125771    1    1   23    3
 -0.0008303265278365092    1    1   23    5
 -0.0006220836185708449    1    1   23    7
 -0.0005537390531377162    1    1   23    9
 0.0001397971268809062    1    1   23   11
 6.642164677582267e-05    1    1   23   13
 -1.320646914884844e-05    1    1   23   15
 3.323833784254875e-05    1    1   23   17
 -0.0002229035842352435    1    1   23   19
 0.03221625527899467    1    1   23   21
 0.1024149876641763    1    1   23   23
 0.0004907960184474603    1    1   24    2
 -8.122576422333184e-05    1    1   24    4
 -3.462875135545245e-05    1    1   24    6
 -0.0001339494814127926    1    1   24    8
 -2.810047233336348e-05    1    1   24   10
 1.91392519154239e-05    1    1   24   12
 -9.098733518640711e-06    1    1   24   14
 -2.275289669413823e-05    1    1   24   16
 -7.859657120433449e-05    1    1   24   18
 0.0003485725670938078    1    1   24   20
 -0.007963780672381583    1    1   24   22
 0.1289954916488823    1    1   24   24
 -0.000115761675896651    1    1   25    2
 -0.0007665065068151692    1    1   25    4
 -0.0004012041336980882    1    1   25    6
 -0.0004164630987167568    1    1   25    8
 -9.545610182225316e-05    1    1   25   10
 4.769377822639079e-05    1    1   25   12
 -2.378353583271358e-05    1    1   25   14
 -2.623047095214851e-05    1    1   25   16
 -7.545281287343018e-05    1    1   25   18
 0.0001036008851734802    1    1   25   20
 -0.03039754772513697    1    1   25   22
 -0.02014858566807229    1    1   25   24
 0.1013190893064695    1    1   25   25
 0.0005222133052411473    1    1   26    1
 0.0004935179292103875    1    1   26    3
 -0.0001485510972531242    1    1   26    5
 -0.0001702475911618875    1    1   26    7
 1.407496263719932e-05    1    1   26    9
 -1.444514644266802e-05    1    1   26   11
 -1.603649175341889e-05    1    1   26   13
 1.530957219438283e-05    1    1   26   15
 -6.824155968637551e-05    1    1   26   17
 -0.0002549734610149995    1    1   26   19
 0.001846770983044265    1    1   26   21
 0.009665376348211165    1    1   26   23
 0.1001214779242323    1    1   26   26
 -0.0005022833301648072    1    1   27    2
 0.0001748979476351435    1    1   27    4
 -0.0003764071048523142    1    1   27    6
 -3.547757265660954e-05    1    1   27    8
 -1.680737619179275e-06    1    1   27   10
 -6.04077070025244e-06    1    1   27   12
 4.262550008502387e-06    1    1   27   14
 2.996810322983528e-05    1    1   27   16
 9.653099797759992e-05    1    1   27   18
 -0.000442632820327157    1    1   27   20
 -0.007292040695677147    1    1   27   22
 0.03365089398487384    1    1   27   24
 0.01648480460738543    1    1   27   25
 0.1302541290737687    1    1   27   27
 -0.0002115038803493739    1    1   28    1
 0.0004893105189458864    1    1   28    3
 0.0004072786769324622    1    1   28    5
 -0.0003295106320850047    1    1   28    7
 5.861665070089193e-05    1    1   28    9
 -2.729723929604437e-05    1    1   28   11
 -2.054518856621534e-05    1    1   28   13
 9.554741869435834e-06    1    1   28   15
 -3.317684761692695e-05    1    1   28   17
 -0.0001344583250468918    1    1   28   19
 0.0007543969598805987    1    1   28   21
 0.03104360653294019    1    1   28   23
 -0.02534294242582062    1    1   28   26
 0.125593510578112    1    1   28   28
 0.05895880645199029    2    1    2    1
 0.03523023596107989    2    1    3    2
 0.02296256879319082    2    1    4    1
 -0.03515696684060823    2    1    4    3
 -0.02350953321383689    2    1    5    2
 -0.03480594652295062    2    1    5    4
 0.0006127133905117822    2    1    6    1
 0.02377540226898196    2    1    6    3
 -0.03449572225662568    2    1    6    5
 -0.0005203195394568733    2    1    7    2
 0.02398271729345575    2    1    7    4
 -0.0342217380334171    2    1    7    6
 -4.305432568083543e-05    2    1    8    1
 -0.0004125287414552536    2    1    8    3
 -0.02415293219413729    2    1    8    5
 0.03395435895276577    2    1    8    7
 3.837404429251137e-05    2    1    9    2
 -0.0003036156247820578    2    1    9    4
 -0.0243035657496081    2    1    9    6
 -0.03366595167122807    2    1    9    8
 -1.318703373341464e-05    2    1   10    1
 -2.111000604952716e-05    2    1   10    3
 -0.0001789356740062968    2    1   10    5
 -0.02444241559464654    2    1   10    7
 -0.03332316034528758    2    1   10    9
 -1.572003194275345e-05    2    1   11    2
 -8.537571393908185e-06    2    1   11    4
 2.468845427354427e-05    2    1   11    6
 -0.02456885274852982    2    1   11    8
 0.03286329367344185    2    1   11   10
 7.105984630328965e-06    2    1   12    1
 9.06022452448578e-06    2    1   12    3
 -5.141085510186431e-05    2    1   12    5
 -0.000170333881059366    2    1   12    7
 -0.02467361093821669    2    1   12    9
 -0.0321118242801398    2    1   12   11
 -7.17279932224528e-06    2    1   13    2
 -4.902592048841581e-06    2    1   13    4
 -0.0001023679094988008    2    1   13    6
 0.0003972534227770566    2    1   13    8
 -0.02478514003810729    2    1   13   10
 -0.03053984150308773    2    1   13   12
 -2.043818123471496e-06    2    1   14    1
 -2.330371816689023e-06    2    1   14    3
 1.779991705157377e-05    2    1   14    5
 0.0001286274238608935    2    1   14    7
 -0.000524059080162005    2    1   14    9
 -0.02519811497515056    2    1   14   11
 0.05251284104078902    2    1   14   13
 -4.742097028126273e-06    2    1   15    2
 1.704107275372966e-05    2    1   15    4
 6.405783077038929e-05    2    1   15    6
 -0.0003322480751353515    2    1   15    8
 -0.002816362873265968    2    1   15   10
 -0.01724988414328856    2    1   15   12
 -0.01544386691351991    2    1   15   14
 3.753099933820336e-06    2    1   16    1
 1.62232383014234e-05    2    1   16    3
 6.174586900381095e-05    2    1   16    5
 0.0002863576924167677    2    1   16    7
 -0.002085746185068202    2    1   16    9
 -0.007514567661406186    2    1   16   11
 -0.007816082464496655    2    1   16   13
 -0.05353729899883145    2    1   16   15
 1.202318751361738e-05    2    1   17    2
 -4.726419911276452e-05    2    1   17    4
 -0.0002058096652132577    2    1   17    6
 0.001374249417249419    2    1   17    8
 -0.004680783002510507    2    1   17   10
 0.0003295484119755594    2    1   17   12
 -0.01740086081852196    2    1   17   14
 0.02943253837580962    2    1   17   16
 7.31928341686901e-06    2    1   18    1
 3.404565250555218e-05    2    1   18    3
 0.0001449155523203596    2    1   18    5
 0.0009180241454529369    2    1   18    7
 0.003201433009156934    2    1   18    9
 0.0002223258359905752    2    1   18   11
 -0.007030015757892712    2    1   18   13
 0.02687830436006483    2    1   18   15
 0.03225147095887032    2    1   18   17
 2.324534080315596e-05    2    1   19    2
 -0.0001035483535526075    2    1   19    4
 -0.0006346947495819389    2    1   19    6
 -0.002300815729258073    2    1   19    8
 0.0002277698028432889    2    1   19   10
 0.00423774508463938    2    1   19   12
 0.003470277732958565    2    1   19   14
 -0.02578863991231958    2    1   19   16
 0.03322195791357681    2    1   19   18
 -1.267301294470774e-05    2    1   20    1
 -7.474039439646341e-05    2    1   20    3
 -0.0004514090752360763    2    1   20    5
 0.001719104678953798    2    1   20    7
 0.0001896334053749877    2    1   20    9
 0.002809833597048015    2    1   20   11
 -0.00255754223069307    2    1   20   13
 0.000784547498076292    2    1   20   15
 0.02561771899063319    2    1   20   17
 -0.03375872912573637    2    1   20   19
 -5.257965286935263e-05    2    1   21    2
 0.0003248371163199182    2    1   21    4
 -0.001328559150655278    2    1   21    6
 -0.0001559231326569439    2    1   21    8
 0.00194726158287741    2    1   21   10
 0.001728157614854467    2    1   21   12
 -0.0003261209542200069    2    1   21   14
 -0.0007499424422593003    2    1   21   16
 0.02550735375780508    2    1   21   18
 0.03408858711293222    2    1   21   20
 -3.103959115084855e-05    2    1   22    1
 -0.0002281919440302862    2    1   22    3
 0.001061636663668544    2    1   22    5
 -0.0001278711632593827    2    1   22    7
 -0.001391010345229273    2    1   22    9
 -0.001192467530019954    2    1   22   11
 -0.0002967333162145059    2    1   22   13
 0.0002304187222740206    2    1   22   15
 -0.0006267449987495729    2    1   22   17
 0.02539451067708352    2    1   22   19
 0.03418857146345024    2    1   22   21
 0.0001400171234317144    2    1   23    2
 0.0008882392746884947    2    1   23    4
 -9.917547711855057e-05    2    1   23    6
 -0.001010966554490968    2    1   23    8
 0.0008618819028138689    2    1   23   10
 -0.0002232184264597957    2    1   23   12
 7.467745688696792e-05    2    1   23   14
 0.0002631231106293248    2    1   23   16
 0.0006295080262871851    2    1   23   18
 0.02525250875321226    2    1   23   20
 -0.03370064059595523    2    1   23   22
 -0.0004417255645810141    2    1   24    1
 0.0007605370258626276    2    1   24    3
 -0.0001389882011528481    2    1   24    5
 9.67944292266796e-05    2    1   24    7
 0.0001941828603598129    2    1   24    9
 -4.502494334351811e-05    2    1   24   11
 -2.607738544868621e-05    2    1   24   13
 3.709629318315042e-05    2    1   24   15
 -0.0001512695900405345    2    1   24   17
 -0.0005578360237378467    2    1   24   19
 -0.006073498983373586    2    1   24   21
 -0.006754770886845007    2    1   24   23
 0.0001856613930629287    2    1   25    1
 0.0005103908891356675    2    1   25    3
 6.638592947507001e-05    2    1   25    5
 0.0006838745971262597    2    1   25    7
 0.0006223158229085575    2    1   25    9
 -0.0001444518191283076    2    1   25   11
 -7.434658028076082e-05    2    1   25   13
 8.016619440391918e-05    2    1   25   15
 -0.0002857168980610453    2    1   25   17
 -0.0008294473525166032    2    1   25   19
 -0.02376279718041669    2    1   25   21
 -0.02877423178292151    2    1   25   23
 0.0002262953487933866    2    1   26    2
 -0.0004278666198741727    2    1   26    4
 0.000102972861993953    2    1   26    6
 -0.000239259799642249    2    1   26    8
 -1.63799440904772e-05    2    1   26   10
 2.399075784688355e-05    2    1   26   12
 -1.204311223013729e-05    2    1   26   14
 -7.11769823630963e-05    2    1   26   16
 -0.0002572836578040522    2    1   26   18
 0.001795606980012372    2    1   26   20
 -0.007533831251621461    2    1   26   22
 0.0552159591870509    2    1   26   24
 -0.01789549508278964    2    1   26   25
 -0.0007318756803661791    2    1   27    1
 0.0003065569501818171    2    1   27    3
 -0.0005716702574256454    2    1   27    5
 0.0005459135530314421    2    1   27    7
 6.282806371398246e-05    2    1   27    9
 -3.465720674083501e-06    2    1   27   11
 6.302036904306998e-06    2    1   27   13
 -2.256780908581509e-05    2    1   27   15
 7.273720568325235e-05    2    1   27   17
 0.000336311907479638    2    1   27   19
 -0.006461185796492382    2    1   27   21
 -0.02899902200594165    2    1   27   23
 -0.04676822377727737    2    1   27   26
 0.0006271943172327319    2    1   28    2
 0.0002533751777275939    2    1   28    4
 -0.0007024465552310946    2    1   28    6
 -0.0004817585465360531    2    1   28    8
 -8.158986662628643e-05    2    1   28   10
 4.400612318008168e-05    2    1   28   12
 -2.17070426822188e-05    2    1   28   14
 -8.330442687459229e-05    2    1   28   16
 -0.0002870617761106314    2    1   28   18
 0.00131109983744025    2    1   28   20
 -0.02466234662754941    2    1   28   22
 -0.02046699733084332    2    1   28   24
 0.05341404625814125    2    1   28   25
 -0.01973545185713997    2    1   28   27
 0.1065302835884603    2    2    1    1
 0.1226709320044705    2    2    2    2
 0.01638880775312302    2    2    3    1
 0.1027445076758209    2    2    3    3
 0.003298218224127229    2    2    4    2
 0.1024175020794929    2    2    4    4
 -0.01964798825941075    2    2    5    1
 -0.003695016410902623    2    2    5    3
 0.1019698018816159    2    2    5    5
 0.02007192899276872    2    2    6    2
 -0.004239227481008408    2    2    6    4
 0.1015713135583023    2    2    6    6
 -0.0004701667055348833    2    2    7    1
 -0.02026096459637641    2    2    7    3
 -0.004708068940564181    2    2    7    5
 0.101202978705826    2    2    7    7
 -0.0003581665725532202    2    2    8    2
 0.02039990169400058    2    2    8    4
 0.005135115645019263    2    2    8    6
 0.1008297094891353    2    2    8    8
 3.305021680410913e-05    2    2    9    1
 0.0002239701950950378    2    2    9    3
 0.02049713170401489    2    2    9    5
 0.005566122912322474    2    2    9    7
 0.1004126959526077    2    2    9    9
 -2.470386685252558e-05    2    2   10    2
 7.359919109281056e-05    2    2   10    4
 0.02055498567855957    2    2   10    6
 -0.006045620389456254    2    2   10    8
 0.09988846150523625    2    2   10   10
 -1.282348594582993e-05    2    2   11    1
 2.798913647735629e-06    2    2   11    3
 0.0001110058716439315    2    2   11    5
 -0.02056298057572196    2    2   11    7
 0.006640601310381859    2    2   11    9
 0.09907587558713185    2    2   11   11
 1.220167357634389e-05    2    2   12    2
 4.936494106623913e-05    2    2   12    4
 0.0003433048013124843    2    2   12    6
 0.02049798563081396    2    2   12    8
 0.007529878631390367    2    2   12   10
 0.09717851910186215    2    2   12   12
 -5.832337082725333e-06    2    2   13    1
 7.552445602174163e-07    2    2   13    3
 0.0001086479917778609    2    2   13    5
 0.0006099074791618767    2    2   13    7
 0.02038066313746662    2    2   13    9
 -0.009450132423198553    2    2   13   11
 0.113139555332501    2    2   13   13
 -3.284385400042708e-06    2    2   14    2
 -1.579129335673151e-05    2    2   14    4
 -0.0001422238095845057    2    2   14    6
 0.0007540856602458578    2    2   14    8
 -0.02071636760143738    2    2   14   10
 -0.007350141109590282    2    2   14   12
 0.1063414747118512    2    2   14   14
 -4.497147251465369e-06    2    2   15    1
 -1.965452111483794e-05    2    2   15    3
 -7.273355639429106e-05    2    2   15    5
 -0.0003570304463994343    2    2   15    7
 0.003144201281069537    2    2   15    9
 0.01438096921895721    2    2   15   11
 -0.0006052791886663796    2    2   15   13
 0.107825102995947    2    2   15   15
 1.825341123601939e-05    2    2   16    2
 -7.022182686033961e-05    2    2   16    4
 -0.0003144948466503854    2    2   16    6
 0.002316977620321551    2    2   16    8
 -0.005337859433143292    2    2   16   10
 0.01484916881844061    2    2   16   12
 0.0005909811845889353    2    2   16   14
 0.1139298162419668    2    2   16   16
 1.128563057571814e-05    2    2   17    1
 5.377002066025982e-05    2    2   17    3
 0.0002299210372139963    2    2   17    5
 0.001535958250185961    2    2   17    7
 0.003363784570753752    2    2   17    9
 -0.004248243110969938    2    2   17   11
 -0.01478526900398644    2    2   17   13
 -0.006525994313252997    2    2   17   15
 0.09683245300044335    2    2   17   17
 3.819255086404255e-05    2    2   18    2
 -0.0001636064080617131    2    2   18    4
 -0.001031890376150927    2    2   18    6
 -0.002365858333021187    2    2   18    8
 -0.002461998139129461    2    2   18   10
 0.004012738978400395    2    2   18   12
 -0.0140001545245239    2    2   18   14
 -0.01149242169124022    2    2   18   16
 0.1000313585246344    2    2   18   18
 2.214392288312113e-05    2    2   19    1
 0.0001162407615315159    2    2   19    3
 0.0007150936664106072    2    2   19    5
 -0.001744389776719816    2    2   19    7
 0.001675991264472626    2    2   19    9
 -0.00223014255419005    2    2   19   11
 -0.004426437026265911    2    2   19   13
 0.02209194139153145    2    2   19   15
 -0.008436909587933028    2    2   19   17
 0.1011419375676197    2    2   19   19
 -8.07475993445635e-05    2    2   20    2
 0.0005077018125633228    2    2   20    4
 -0.001334462666876746    2    2   20    6
 0.001214541242348438    2    2   20    8
 0.00144838645125348    2    2   20   10
 -0.002616972216595724    2    2   20   12
 -0.003800617783889562    2    2   20   14
 0.02105175880135868    2    2   20   16
 0.007400398431781526    2    2   20   18
 0.1018124303109389    2    2   20   20
 -5.017366131524403e-05    2    2   21    1
 -0.0003623851759817134    2    2   21    3
 0.001057632821383999    2    2   21    5
 0.0009179064036978551    2    2   21    7
 -0.0009934646302885476    2    2   21    9
 0.001746557791875297    2    2   21   11
 -0.002798457680445704    2    2   21   13
 0.001148598969860765    2    2   21   15
 0.02107128832789429    2    2   21   17
 0.006815473432416123    2    2   21   19
 0.1022355999315391    2    2   21   21
 -0.0002488377265949041    2    2   22    2
 -0.0008731730101589012    2    2   22    4
 -0.000721677538433554    2    2   22    6
 0.0007052362253479535    2    2   22    8
 0.001212752733442409    2    2   22   10
 0.001914547054564045    2    2   22   12
 -0.000349532341351546    2    2   22   14
 -0.001180428325277851    2    2   22   16
 0.02104169243961623    2    2   22   18
 -0.006522554696808684    2    2   22   20
 0.1023695562066833    2    2   22   22
 0.0001401826873778285    2    2   23    1
 -0.0007667349237079716    2    2   23    3
 -0.0006054376861274352    2    2   23    5
 -0.0005202498772097443    2    2   23    7
 0.0008450080648048147    2    2   23    9
 0.001343054176703065    2    2   23   11
 0.0003273320443533071    2    2   23   13
 -0.0003021316491378886    2    2   23   15
 0.001143969905241024    2    2   23   17
 -0.02082790440166709    2    2   23   19
 0.006762462548273455    2    2   23   21
 0.1016461567035144    2    2   23   23
 8.075660404201771e-05    2    2   24    2
 -0.0006971248571672371    2    2   24    4
 9.561068731602255e-05    2    2   24    6
 1.940111136538962e-05    2    2   24    8
 -0.0002880801462297326    2    2   24   10
 7.195341381143394e-05    2    2   24   12
 -2.804105281561421e-05    2    2   24   14
 -0.0001698436878684855    2    2   24   16
 -0.0006750009543576743    2    2   24   18
 -0.00458039726200335    2    2   24   20
 -0.004193442556364776    2    2   24   22
 0.1042963545719753    2    2   24   24
 0.0007547648100460561    2    2   25    2
 -0.000342333994582479    2    2   25    4
 -0.0005302721507331339    2    2   25    6
 0.0005227493342158253    2    2   25    8
 -0.0009295435298501378    2    2   25   10
 0.0002270985710161881    2    2   25   12
 -8.423188838368664e-05    2    2   25   14
 -0.0003684831786744808    2    2   25   16
 -0.0012656083007035    2    2   25   18
 -0.01929267514236251    2    2   25   20
 -0.009066417129283726    2    2   25   22
 -0.01256446942529059    2    2   25   24
 0.111669741277869    2    2   25   25
 5.691324121609703e-05    2    2   26    1
 0.0004542137046744811    2    2   26    3
 0.0004672185906687549    2    2   26    5
 -0.0002663793235452857    2    2   26    7
 0.0003203281801646826    2    2   26    9
 -3.120631457453774e-05    2    2   26   11
 -3.591993794877131e-05    2    2   26   13
 6.952495219637606e-05    2    2   26   15
 -0.0002934283916572276    2    2   26   17
 -0.001878014091792332    2    2   26   19
 -0.004279490860041479    2    2   26   21
 0.01855082364005252    2    2   26   23
 0.1283998437297031    2    2   26   26
 -0.0003181731759333335    2    2   27    2
 0.0001042662618459984    2    2   27    4
 0.000367111631653606    2    2   27    6
 0.0006688348837125689    2    2   27    8
 -9.791292009328056e-05    2    2   27   10
 1.193333404161945e-06    2    2   27   12
 7.455595132104149e-06    2    2   27   14
 7.534878128050843e-05    2    2   27   16
 0.0003105178977875931    2    2   27   18
 -0.006054240047939939    2    2   27   20
 0.01798415220758511    2    2   27   22
 -0.02257910818298336    2    2   27   24
 0.00553944579850877    2    2   27   25
 0.1059214437053738    2    2   27   27
 0.0007084386668504408    2    2   28    1
 0.0002713342584801173    2    2   28    3
 0.0001739912464119878    2    2   28    5
 0.000600170041212334    2    2   28    7
 0.0006884102641267874    2    2   28    9
 -0.0001238962868264678    2    2   28   11
 -6.780269289760285e-05    2    2   28   13
 8.583196493540477e-05    2    2   28   15
 -0.0003509934533051974    2    2   28   17
 -0.001628613981326936    2    2   28   19
 -0.01974325086596803    2    2   28   21
 -0.001369515024483816    2    2   28   23
 -0.003552772876166697    2    2   28   26
 0.1073963445449288    2    2   28   28
 -0.029663644100611    3    1    1    1
 0.01638880775312302    3    1    2    2
 0.04685962862501072    3    1    3    1
 -0.003456729011259783    3    1    3    3
 -0.02759262525179183    3    1    4    2
 -0.003091777701401555    3    1    4    4
 -0.01880624857534699    3    1    5    1
 0.02746389588861678    3    1    5    3
 -0.002973558448607624    3    1    5    5
 0.01924507720720761    3    1    6    2
 0.02713643457994678    3    1    6    4
 -0.00290694998117995    3    1    6    6
 -0.0003382083698610224    3    1    7    1
 -0.019485250708339    3    1    7    3
 0.02683680021565337    3    1    7    5
 -0.00284570276200679    3    1    7    7
 -0.000179552611500676    3    1    8    2
 0.01968627921196455    3    1    8    4
 -0.02655479261332579    3    1    8    6
 -0.002778695819999819    3    1    8    8
 -3.153510113797827e-05    3    1    9    1
 3.119534394722956e-05    3    1    9    3
 0.01986145927041807    3    1    9    5
 -0.02625823203967811    3    1    9    7
 -0.0027035457560404    3    1    9    9
 6.912984652083891e-05    3    1   10    2
 -0.0001144091054186341    3    1   10    4
 0.02002091608791179    3    1   10    6
 0.02590855022549028    3    1   10    8
 -0.002634229532735372    3    1   10   10
 2.079181388484801e-05    3    1   11    1
 0.0001066141336692192    3    1   11    3
 0.0002772322897235295    3    1   11    5
 -0.02016553971245204    3    1   11    7
 -0.02543630910838037    3    1   11    9
 -0.002674965954680636    3    1   11   11
 -3.504660467490168e-05    3    1   12    2
 0.0001487174752769275    3    1   12    4
 0.0004684390140671929    3    1   12    6
 0.02028778346125834    3    1   12    8
 -0.02464722551447533    3    1   12   10
 -0.003448050570692886    3    1   12   12
 9.458262905032763e-06    3    1   13    1
 4.697343405898717e-05    3    1   13    3
 0.0001880295158975358    3    1   13    5
 0.0006722201394329021    3    1   13    7
 0.02041886234311498    3    1   13    9
 0.02281944776108955    3    1   13   11
 0.01423696945470627    3    1   13   13
 1.168467853523481e-05    3    1   14    2
 -4.67061884660662e-05    3    1   14    4
 -0.0001855037920347499    3    1   14    6
 0.0007420513695391411    3    1   14    8
 -0.02097040235491957    3    1   14   10
 -0.03987170102472651    3    1   14   12
 -0.02278618533048109    3    1   14   14
 -5.533471997735658e-06    3    1   15    1
 -2.209678305252542e-05    3    1   15    3
 -7.137492583602842e-05    3    1   15    5
 -0.0003309065634717677    3    1   15    7
 0.002880921745622781    3    1   15    9
 0.01698063283287022    3    1   15   11
 -0.01704827247917326    3    1   15   13
 -0.02142978534029688    3    1   15   15
 2.098317535647785e-05    3    1   16    2
 -7.157209549412302e-05    3    1   16    4
 -0.0002927833809347924    3    1   16    6
 0.002115463105493134    3    1   16    8
 -0.007223717094557024    3    1   16   10
 0.007380007655479826    3    1   16   12
 0.01672557070034621    3    1   16   14
 0.01609036275148582    3    1   16   16
 1.273441603992563e-05    3    1   17    1
 5.526251830780698e-05    3    1   17    3
 0.000215259176957229    3    1   17    5
 0.001399250785526389    3    1   17    7
 0.004577810146564696    3    1   17    9
 0.0004004091197358029    3    1   17   11
 -0.008030224585093164    3    1   17   13
 -0.04090276039313316    3    1   17   15
 -0.004375220094041718    3    1   17   17
 3.804880066147611e-05    3    1   18    2
 -0.0001536004901745093    3    1   18    4
 -0.0009368158224566427    3    1   18    6
 -0.003168574689590808    3    1   18    8