[Molden Format]
made by pyscf v[2.6.2]
[Atoms] (AU)
H   1   1     2.33763765856000     4.69310123508400     0.00000000000000
H   2   1    -2.33763765856000    -4.69310123508400     0.00000000000000
H   3   1    -2.33763765856000     4.69310123508400     0.00000000000000
H   4   1     2.33763765856000    -4.69310123508400     0.00000000000000
H   5   1     6.36492454504300     2.34982418841500     0.00000000000000
H   6   1    -6.36492454504300    -2.34982418841500     0.00000000000000
H   7   1    -6.36492454504300     2.34982418841500     0.00000000000000
H   8   1     6.36492454504300    -2.34982418841500     0.00000000000000
C   9   6     0.00000000000000     1.34347620379600     0.00000000000000
C   10   6     0.00000000000000    -1.34347620379600     0.00000000000000
C   11   6     2.34629842880300     2.63976101399600     0.00000000000000
C   12   6    -2.34629842880300    -2.63976101399600     0.00000000000000
C   13   6    -2.34629842880300     2.63976101399600     0.00000000000000
C   14   6     2.34629842880300    -2.63976101399600     0.00000000000000
C   15   6     4.58120036880600     1.33647725770700     0.00000000000000
C   16   6    -4.58120036880600    -1.33647725770700     0.00000000000000
C   17   6    -4.58120036880600     1.33647725770700     0.00000000000000
C   18   6     4.58120036880600    -1.33647725770700     0.00000000000000
[GTO]
1 0
 s    3 1.00
             18.731137    0.03349459952309
             2.8253937    0.23472694665786
             0.6401217    0.81375731841339
 s    1 1.00
             0.1612778                   1

2 0
 s    3 1.00
             18.731137    0.03349459952309
             2.8253937    0.23472694665786
             0.6401217    0.81375731841339
 s    1 1.00
             0.1612778                   1

3 0
 s    3 1.00
             18.731137    0.03349459952309
             2.8253937    0.23472694665786
             0.6401217    0.81375731841339
 s    1 1.00
             0.1612778                   1

4 0
 s    3 1.00
             18.731137    0.03349459952309
             2.8253937    0.23472694665786
             0.6401217    0.81375731841339
 s    1 1.00
             0.1612778                   1

5 0
 s    3 1.00
             18.731137    0.03349459952309
             2.8253937    0.23472694665786
             0.6401217    0.81375731841339
 s    1 1.00
             0.1612778                   1

6 0
 s    3 1.00
             18.731137    0.03349459952309
             2.8253937    0.23472694665786
             0.6401217    0.81375731841339
 s    1 1.00
             0.1612778                   1

7 0
 s    3 1.00
             18.731137    0.03349459952309
             2.8253937    0.23472694665786
             0.6401217    0.81375731841339
 s    1 1.00
             0.1612778                   1

8 0
 s    3 1.00
             18.731137    0.03349459952309
             2.8253937    0.23472694665786
             0.6401217    0.81375731841339
 s    1 1.00
             0.1612778                   1

9 0
 s    6 1.00
             3047.5249  0.0018347001629433
             457.36951    0.01403730124668
             103.94869   0.068842606114048
             29.210155    0.23218442062076
              9.286663    0.46794134155879
              3.163927    0.36231203217765
 s    3 1.00
             7.8682724   -0.11933240861517
             1.8812885   -0.16085421161283
             0.5442493     1.1434564825515
 s    1 1.00
             0.1687144                   1
 p    3 1.00
             7.8682724   0.068999095584993
             1.8812885    0.31642397975315
             0.5442493    0.74430825237435
 p    1 1.00
             0.1687144                   1

10 0
 s    6 1.00
             3047.5249  0.0018347001629433
             457.36951    0.01403730124668
             103.94869   0.068842606114048
             29.210155    0.23218442062076
              9.286663    0.46794134155879
              3.163927    0.36231203217765
 s    3 1.00
             7.8682724   -0.11933240861517
             1.8812885   -0.16085421161283
             0.5442493     1.1434564825515
 s    1 1.00
             0.1687144                   1
 p    3 1.00
             7.8682724   0.068999095584993
             1.8812885    0.31642397975315
             0.5442493    0.74430825237435
 p    1 1.00
             0.1687144                   1

11 0
 s    6 1.00
             3047.5249  0.0018347001629433
             457.36951    0.01403730124668
             103.94869   0.068842606114048
             29.210155    0.23218442062076
              9.286663    0.46794134155879
              3.163927    0.36231203217765
 s    3 1.00
             7.8682724   -0.11933240861517
             1.8812885   -0.16085421161283
             0.5442493     1.1434564825515
 s    1 1.00
             0.1687144                   1
 p    3 1.00
             7.8682724   0.068999095584993
             1.8812885    0.31642397975315
             0.5442493    0.74430825237435
 p    1 1.00
             0.1687144                   1

12 0
 s    6 1.00
             3047.5249  0.0018347001629433
             457.36951    0.01403730124668
             103.94869   0.068842606114048
             29.210155    0.23218442062076
              9.286663    0.46794134155879
              3.163927    0.36231203217765
 s    3 1.00
             7.8682724   -0.11933240861517
             1.8812885   -0.16085421161283
             0.5442493     1.1434564825515
 s    1 1.00
             0.1687144                   1
 p    3 1.00
             7.8682724   0.068999095584993
             1.8812885    0.31642397975315
             0.5442493    0.74430825237435
 p    1 1.00
             0.1687144                   1

13 0
 s    6 1.00
             3047.5249  0.0018347001629433
             457.36951    0.01403730124668
             103.94869   0.068842606114048
             29.210155    0.23218442062076
              9.286663    0.46794134155879
              3.163927    0.36231203217765
 s    3 1.00
             7.8682724   -0.11933240861517
             1.8812885   -0.16085421161283
             0.5442493     1.1434564825515
 s    1 1.00
             0.1687144                   1
 p    3 1.00
             7.8682724   0.068999095584993
             1.8812885    0.31642397975315
             0.5442493    0.74430825237435
 p    1 1.00
             0.1687144                   1

14 0
 s    6 1.00
             3047.5249  0.0018347001629433
             457.36951    0.01403730124668
             103.94869   0.068842606114048
             29.210155    0.23218442062076
              9.286663    0.46794134155879
              3.163927    0.36231203217765
 s    3 1.00
             7.8682724   -0.11933240861517
             1.8812885   -0.16085421161283
             0.5442493     1.1434564825515
 s    1 1.00
             0.1687144                   1
 p    3 1.00
             7.8682724   0.068999095584993
             1.8812885    0.31642397975315
             0.5442493    0.74430825237435
 p    1 1.00
             0.1687144                   1

15 0
 s    6 1.00
             3047.5249  0.0018347001629433
             457.36951    0.01403730124668
             103.94869   0.068842606114048
             29.210155    0.23218442062076
              9.286663    0.46794134155879
              3.163927    0.36231203217765
 s    3 1.00
             7.8682724   -0.11933240861517
             1.8812885   -0.16085421161283
             0.5442493     1.1434564825515
 s    1 1.00
             0.1687144                   1
 p    3 1.00
             7.8682724   0.068999095584993
             1.8812885    0.31642397975315
             0.5442493    0.74430825237435
 p    1 1.00
             0.1687144                   1

16 0
 s    6 1.00
             3047.5249  0.0018347001629433
             457.36951    0.01403730124668
             103.94869   0.068842606114048
             29.210155    0.23218442062076
              9.286663    0.46794134155879
              3.163927    0.36231203217765
 s    3 1.00
             7.8682724   -0.11933240861517
             1.8812885   -0.16085421161283
             0.5442493     1.1434564825515
 s    1 1.00
             0.1687144                   1
 p    3 1.00
             7.8682724   0.068999095584993
             1.8812885    0.31642397975315
             0.5442493    0.74430825237435
 p    1 1.00
             0.1687144                   1

17 0
 s    6 1.00
             3047.5249  0.0018347001629433
             457.36951    0.01403730124668
             103.94869   0.068842606114048
             29.210155    0.23218442062076
              9.286663    0.46794134155879
              3.163927    0.36231203217765
 s    3 1.00
             7.8682724   -0.11933240861517
             1.8812885   -0.16085421161283
             0.5442493     1.1434564825515
 s    1 1.00
             0.1687144                   1
 p    3 1.00
             7.8682724   0.068999095584993
             1.8812885    0.31642397975315
             0.5442493    0.74430825237435
 p    1 1.00
             0.1687144                   1

18 0
 s    6 1.00
             3047.5249  0.0018347001629433
             457.36951    0.01403730124668
             103.94869   0.068842606114048
             29.210155    0.23218442062076
              9.286663    0.46794134155879
              3.163927    0.36231203217765
 s    3 1.00
             7.8682724   -0.11933240861517
             1.8812885   -0.16085421161283
             0.5442493     1.1434564825515
 s    1 1.00
             0.1687144                   1
 p    3 1.00
             7.8682724   0.068999095584993
             1.8812885    0.31642397975315
             0.5442493    0.74430825237435
 p    1 1.00
             0.1687144                   1

[5d]
[7f]
[9g]

[MO]
 Sym= B1u
 Ene=               0
 Spin= Alpha
 Occup=    1.00000
   1                     0
   2                     0
   3                     0
   4                     0
   5                     0
   6                     0
   7                     0
   8                     0
   9                     0
  10                     0
  11                     0
  12                     0
  13                     0
  14                     0
  15                     0
  16                     0
  17                     0
  18                     0
  19                     0
  20                     0
  21                     0
  22      0.22864276368093
  23                     0
  24                     0
  25      0.13639896093515
  26                     0
  27                     0
  28                     0
  29                     0
  30                     0
  31      0.22864276368093
  32                     0
  33                     0
  34      0.13639896093515
  35                     0
  36                     0
  37                     0
  38                     0
  39                     0
  40       0.1586859564746
  41                     0
  42                     0
  43     0.091374271463811
  44                     0
  45                     0
  46                     0
  47                     0
  48                     0
  49       0.1586859564746
  50                     0
  51                     0
  52     0.091374271463811
  53                     0
  54                     0
  55                     0
  56                     0
  57                     0
  58       0.1586859564746
  59                     0
  60                     0
  61     0.091374271463811
  62                     0
  63                     0
  64                     0
  65                     0
  66                     0
  67       0.1586859564746
  68                     0
  69                     0
  70     0.091374271463811
  71                     0
  72                     0
  73                     0
  74                     0
  75                     0
  76      0.13178722178587
  77                     0
  78                     0
  79     0.077523759524882
  80                     0
  81                     0
  82                     0
  83                     0
  84                     0
  85      0.13178722178587
  86                     0
  87                     0
  88     0.077523759524882
  89                     0
  90                     0
  91                     0
  92                     0
  93                     0
  94      0.13178722178587
  95                     0
  96                     0
  97     0.077523759524882
  98                     0
  99                     0
 100                     0
 101                     0
 102                     0
 103      0.13178722178587
 104                     0
 105                     0
 106     0.077523759524882
 Sym= B2g
 Ene=               1
 Spin= Alpha
 Occup=    1.00000
   1                     0
   2                     0
   3                     0
   4                     0
   5                     0
   6                     0
   7                     0
   8                     0
   9                     0
  10                     0
  11                     0
  12                     0
  13                     0
  14                     0
  15                     0
  16                     0
  17                     0
  18                     0
  19                     0
  20                     0
  21                     0
  22                     0
  23                     0
  24                     0
  25                     0
  26                     0
  27                     0
  28                     0
  29                     0
  30                     0
  31                     0
  32                     0
  33                     0
  34                     0
  35                     0
  36                     0
  37                     0
  38                     0
  39                     0
  40      0.15029503002447
  41                     0
  42                     0
  43      0.10409497351841
  44                     0
  45                     0
  46                     0
  47                     0
  48                     0
  49     -0.15029503002447
  50                     0
  51                     0
  52     -0.10409497351841
  53                     0
  54                     0
  55                     0
  56                     0
  57                     0
  58     -0.15029503002447
  59                     0
  60                     0
  61     -0.10409497351841
  62                     0
  63                     0
  64                     0
  65                     0
  66                     0
  67      0.15029503002447
  68                     0
  69                     0
  70      0.10409497351841
  71                     0
  72                     0
  73                     0
  74                     0
  75                     0
  76       0.2251841638653
  77                     0
  78                     0
  79      0.15134228358744
  80                     0
  81                     0
  82                     0
  83                     0
  84                     0
  85      -0.2251841638653
  86                     0
  87                     0
  88     -0.15134228358744
  89                     0
  90                     0
  91                     0
  92                     0
  93                     0
  94      -0.2251841638653
  95                     0
  96                     0
  97     -0.15134228358744
  98                     0
  99                     0
 100                     0
 101                     0
 102                     0
 103       0.2251841638653
 104                     0
 105                     0
 106      0.15134228358744
 Sym= B3g
 Ene=               2
 Spin= Alpha
 Occup=    1.00000
   1                     0
   2                     0
   3                     0
   4                     0
   5                     0
   6                     0
   7                     0
   8                     0
   9                     0
  10                     0
  11                     0
  12                     0
  13                     0
  14                     0
  15                     0
  16                     0
  17                     0
  18                     0
  19                     0
  20                     0
  21                     0
  22      0.18220714646451
  23                     0
  24                     0
  25      0.12610851964535
  26                     0
  27                     0
  28                     0
  29                     0
  30                     0
  31     -0.18220714646451
  32                     0
  33                     0
  34     -0.12610851964535
  35                     0
  36                     0
  37                     0
  38                     0
  39                     0
  40      0.22279081554104
  41                     0
  42                     0
  43      0.16760788047299
  44                     0
  45                     0
  46                     0
  47                     0
  48                     0
  49     -0.22279081554104
  50                     0
  51                     0
  52     -0.16760788047299
  53                     0
  54                     0
  55                     0
  56                     0
  57                     0
  58      0.22279081554104
  59                     0
  60                     0
  61      0.16760788047299
  62                     0
  63                     0
  64                     0
  65                     0
  66                     0
  67     -0.22279081554104
  68                     0
  69                     0
  70     -0.16760788047299
  71                     0
  72                     0
  73                     0
  74                     0
  75                     0
  76      0.11184033334453
  77                     0
  78                     0
  79     0.082339932939103
  80                     0
  81                     0
  82                     0
  83                     0
  84                     0
  85     -0.11184033334453
  86                     0
  87                     0
  88    -0.082339932939103
  89                     0
  90                     0
  91                     0
  92                     0
  93                     0
  94      0.11184033334453
  95                     0
  96                     0
  97     0.082339932939103
  98                     0
  99                     0
 100                     0
 101                     0
 102                     0
 103     -0.11184033334453
 104                     0
 105                     0
 106    -0.082339932939103
 Sym= B1u
 Ene=               3
 Spin= Alpha
 Occup=    1.00000
   1                     0
   2                     0
   3                     0
   4                     0
   5                     0
   6                     0
   7                     0
   8                     0
   9                     0
  10                     0
  11                     0
  12                     0
  13                     0
  14                     0
  15                     0
  16                     0
  17                     0
  18                     0
  19                     0
  20                     0
  21                     0
  22      -0.2626612109183
  23                     0
  24                     0
  25     -0.21237532314639
  26                     0
  27                     0
  28                     0
  29                     0
  30                     0
  31      -0.2626612109183
  32                     0
  33                     0
  34     -0.21237532314639
  35                     0
  36                     0
  37                     0
  38                     0
  39                     0
  40    0.0042069969583494
  41                     0
  42                     0
  43    0.0048131463443122
  44                     0
  45                     0
  46                     0
  47                     0
  48                     0
  49    0.0042069969583494
  50                     0
  51                     0
  52    0.0048131463443122
  53                     0
  54                     0
  55                     0
  56                     0
  57                     0
  58    0.0042069969583494
  59                     0
  60                     0
  61    0.0048131463443122
  62                     0
  63                     0
  64                     0
  65                     0
  66                     0
  67    0.0042069969583494
  68                     0
  69                     0
  70    0.0048131463443122
  71                     0
  72                     0
  73                     0
  74                     0
  75                     0
  76      0.21988047007238
  77                     0
  78                     0
  79       0.1769784764764
  80                     0
  81                     0
  82                     0
  83                     0
  84                     0
  85      0.21988047007238
  86                     0
  87                     0
  88       0.1769784764764
  89                     0
  90                     0
  91                     0
  92                     0
  93                     0
  94      0.21988047007238
  95                     0
  96                     0
  97       0.1769784764764
  98                     0
  99                     0
 100                     0
 101                     0
 102                     0
 103      0.21988047007238
 104                     0
 105                     0
 106       0.1769784764764
 Sym= Au
 Ene=               4
 Spin= Alpha
 Occup=    1.00000
   1                     0
   2                     0
   3                     0
   4                     0
   5                     0
   6                     0
   7                     0
   8                     0
   9                     0
  10                     0
  11                     0
  12                     0
  13                     0
  14                     0
  15                     0
  16                     0
  17                     0
  18                     0
  19                     0
  20                     0
  21                     0
  22                     0
  23                     0
  24                     0
  25                     0
  26                     0
  27                     0
  28                     0
  29                     0
  30                     0
  31                     0
  32                     0
  33                     0
  34                     0
  35                     0
  36                     0
  37                     0
  38                     0
  39                     0
  40      0.24341253360052
  41                     0
  42                     0
  43      0.20337568315968
  44                     0
  45                     0
  46                     0
  47                     0
  48                     0
  49      0.24341253360052
  50                     0
  51                     0
  52      0.20337568315968
  53                     0
  54                     0
  55                     0
  56                     0
  57                     0
  58     -0.24341253360052
  59                     0
  60                     0
  61     -0.20337568315968
  62                     0
  63                     0
  64                     0
  65                     0
  66                     0
  67     -0.24341253360052
  68                     0
  69                     0
  70     -0.20337568315968
  71                     0
  72                     0
  73                     0
  74                     0
  75                     0
  76      0.16150084616627
  77                     0
  78                     0
  79      0.14479702668496
  80                     0
  81                     0
  82                     0
  83                     0
  84                     0
  85      0.16150084616627
  86                     0
  87                     0
  88      0.14479702668496
  89                     0
  90                     0
  91                     0
  92                     0
  93                     0
  94     -0.16150084616627
  95                     0
  96                     0
  97     -0.14479702668496
  98                     0
  99                     0
 100                     0
 101                     0
 102                     0
 103     -0.16150084616627
 104                     0
 105                     0
 106     -0.14479702668496
 Sym= B2g
 Ene=               5
 Spin= Alpha
 Occup=    1.00000
   1                     0
   2                     0
   3                     0
   4                     0
   5                     0
   6                     0
   7                     0
   8                     0
   9                     0
  10                     0
  11                     0
  12                     0
  13                     0
  14                     0
  15                     0
  16                     0
  17                     0
  18                     0
  19                     0
  20                     0
  21                     0
  22                     0
  23                     0
  24                     0
  25                     0
  26                     0
  27                     0
  28                     0
  29                     0
  30                     0
  31                     0
  32                     0
  33                     0
  34                     0
  35                     0
  36                     0
  37                     0
  38                     0
  39                     0
  40      0.31073779476473
  41                     0
  42                     0
  43      0.24431164735363
  44                     0
  45                     0
  46                     0
  47                     0
  48                     0
  49     -0.31073779476473
  50                     0
  51                     0
  52     -0.24431164735363
  53                     0
  54                     0
  55                     0
  56                     0
  57                     0
  58     -0.31073779476473
  59                     0
  60                     0
  61     -0.24431164735363
  62                     0
  63                     0
  64                     0
  65                     0
  66                     0
  67      0.31073779476473
  68                     0
  69                     0
  70      0.24431164735363
  71                     0
  72                     0
  73                     0
  74                     0
  75                     0
  76     -0.20788765580546
  77                     0
  78                     0
  79     -0.16077417804871
  80                     0
  81                     0
  82                     0
  83                     0
  84                     0
  85      0.20788765580546
  86                     0
  87                     0
  88      0.16077417804871
  89                     0
  90                     0
  91                     0
  92                     0
  93                     0
  94      0.20788765580546
  95                     0
  96                     0
  97      0.16077417804871
  98                     0
  99                     0
 100                     0
 101                     0
 102                     0
 103     -0.20788765580546
 104                     0
 105                     0
 106     -0.16077417804871
 Sym= B3g
 Ene=               6
 Spin= Alpha
 Occup=    1.00000
   1                     0
   2                     0
   3                     0
   4                     0
   5                     0
   6                     0
   7                     0
   8                     0
   9                     0
  10                     0
  11                     0
  12                     0
  13                     0
  14                     0
  15                     0
  16                     0
  17                     0
  18                     0
  19                     0
  20                     0
  21                     0
  22      -0.3319772872987
  23                     0
  24                     0
  25     -0.29897527826937
  26                     0
  27                     0
  28                     0
  29                     0
  30                     0
  31       0.3319772872987
  32                     0
  33                     0
  34      0.29897527826937
  35                     0
  36                     0
  37                     0
  38                     0
  39                     0
  40    -0.017793315495844
  41                     0
  42                     0
  43    0.0077818304463635
  44                     0
  45                     0
  46                     0
  47                     0
  48                     0
  49     0.017793315495844
  50                     0
  51                     0
  52    -0.0077818304463635
  53                     0
  54                     0
  55                     0
  56                     0
  57                     0
  58    -0.017793315495844
  59                     0
  60                     0
  61    0.0077818304463635
  62                     0
  63                     0
  64                     0
  65                     0
  66                     0
  67     0.017793315495844
  68                     0
  69                     0
  70    -0.0077818304463635
  71                     0
  72                     0
  73                     0
  74                     0
  75                     0
  76      0.30248898450482
  77                     0
  78                     0
  79      0.25119649258943
  80                     0
  81                     0
  82                     0
  83                     0
  84                     0
  85     -0.30248898450482
  86                     0
  87                     0
  88     -0.25119649258943
  89                     0
  90                     0
  91                     0
  92                     0
  93                     0
  94      0.30248898450482
  95                     0
  96                     0
  97      0.25119649258943