 &FCI NORB=  10,NELEC=10,MS2=0,
  ORBSYM=1,1,1,1,1,1,1,1,1,1,
  ISYM=1,
 &END
 0.268200699088998    1    1    1    1
 0.2268784148640383    1    1    2    2
 0.2570205229659007    1    1    3    3
 -0.0404920638372825    1    1    4    1
 0.2558815532370868    1    1    4    4
 0.2370944297079829    1    1    5    5
 0.0167167210073938    1    1    6    2
 0.240061265444572    1    1    6    6
 -0.03095150225364937    1    1    7    3
 0.2547608173815838    1    1    7    7
 -0.0149463300304899    1    1    8    1
 0.03177884781523701    1    1    8    4
 0.2616506122055354    1    1    8    8
 -0.01707078631557011    1    1    9    5
 0.228278570062368    1    1    9    9
 0.01523549574785123    1    1   10    3
 -0.04127509691105152    1    1   10    7
 0.2759742778551379    1    1   10   10
 0.06408164399958557    2    1    2    1
 0.06131229747910361    2    1    4    2
 0.06491697905308973    2    1    5    3
 0.007305312319597463    2    1    6    1
 -0.04250369261708343    2    1    6    4
 0.04054982483494962    2    1    7    5
 -0.002519018693224527    2    1    8    2
 0.06395220340341609    2    1    8    6
 0.001838788019779346    2    1    9    3
 0.06563515832714903    2    1    9    7
 -0.006834186660492417    2    1   10    5
 0.06135075007040582    2    1   10    9
 0.2268784148640383    2    2    1    1
 0.2441637170280317    2    2    2    2
 0.2223331910067063    2    2    3    3
 0.01603395717759411    2    2    4    1
 0.2370333623172808    2    2    4    4
 0.2298080178802266    2    2    5    5
 -0.01526659336192716    2    2    6    2
 0.2329034939738338    2    2    6    6
 0.01284923724303381    2    2    7    3
 0.2388500634564008    2    2    7    7
 -0.005297531823906094    2    2    8    1
 -0.0114136207889222    2    2    8    4
 0.226152501371643    2    2    8    8
 0.01463217833435422    2    2    9    5
 0.2468145289073227    2    2    9    9
 0.004167621598776195    2    2   10    3
 0.0160204678110021    2    2   10    7
 0.2292800545501649    2    2   10   10
 0.06546124008223868    3    1    3    1
 -0.01095256985335419    3    1    4    3
 0.05204950947849602    3    1    5    2
 0.04575887173342053    3    1    6    5
 -0.0160544221493753    3    1    7    1
 0.04910943970711019    3    1    7    4
 0.03276980608408904    3    1    8    3
 0.007150885761213513    3    1    8    7
 -0.001892669875663546    3    1    9    2
 -0.0547541560918073    3    1    9    6
 0.007354456598249653    3    1   10    1
 -0.0172999796949076    3    1   10    4
 -0.06765859914559189    3    1   10    8
 0.03254678692553939    3    2    3    2
 0.0339264164049804    3    2    5    1
 0.01538302920282492    3    2    5    4
 0.02463244012849915    3    2    6    3
 0.02225947239939125    3    2    7    2
 -0.01619786645663281    3    2    7    6
 0.02517440739999706    3    2    8    5
 -0.001879103200497771    3    2    9    1
 0.02218225489287436    3    2    9    4
 -0.03268761641578194    3    2    9    8
 -0.002425123353648027    3    2   10    2
 -0.03376264475554999    3    2   10    6
 0.2570205229659007    3    3    1    1
 0.2223331910067062    3    3    2    2
 0.257473017877021    3    3    3    3
 -0.03212671881115606    3    3    4    1
 0.236439735253991    3    3    4    4
 0.2422968946915932    3    3    5    5
 0.02690443812712852    3    3    6    2
 0.2446800510070791    3    3    6    6
 -0.02625557621446341    3    3    7    3
 0.2387245634786901    3    3    7    7
 0.003085328262946957    3    3    8    1
 0.02492252182524271    3    3    8    4
 0.2600565679687475    3    3    8    8
 -0.02676886058189051    3    3    9    5
 0.2260180931131283    3    3    9    9
 -0.001149701253047555    3    3   10    3
 -0.03270027881896061    3    3   10    7
 0.2656405625429564    3    3   10   10
 -0.04049206383728247    4    1    1    1
 0.01603395717759411    4    1    2    2
 -0.03212671881115603    4    1    3    3
 0.05499974137665733    4    1    4    1
 -0.02127845753228803    4    1    4    4
 -0.005380987374626748    4    1    5    5
 -0.02804236059485466    4    1    6    2
 -0.005465049282049101    4    1    6    6
 0.04224185720890332    4    1    7    3
 -0.01816264058220815    4    1    7    7
 0.01275503612105457    4    1    8    1
 -0.04219416903407405    4    1    8    4
 -0.0336524719575585    4    1    8    8
 0.02785670372357381    4    1    9    5
 0.01718157780746424    4    1    9    9
 -0.01383337516603195    4    1   10    3
 0.05592830281346046    4    1   10    7
 -0.04628590969351647    4    1   10   10
 0.06131229747910361    4    2    2    1
 0.07201130223834568    4    2    4    2
 0.05126303879275092    4    2    5    3
 -0.01080024170781864    4    2    6    1
 -0.04919283133938887    4    2    6    4
 0.04845299107853558    4    2    7    5
 -0.01830880252403952    4    2    8    2
 0.05229284395320986    4    2    8    6
 0.01845083419064213    4    2    9    3
 0.07503335707514966    4    2    9    7
 0.008928514502162518    4    2   10    5
 0.06014885673527862    4    2   10    9
 -0.0109525698533542    4    3    3    1
 0.01831905188478892    4    3    4    3
 0.006424182819874067    4    3    5    2
 -0.01035965696559234    4    3    6    5
 0.02406295867833064    4    3    7    1
 -0.004131790174874412    4    3    7    4
 0.001321725433359579    4    3    8    3
 -0.01565534345893637    4    3    8    7
 0.01559732494818582    4    3    9    2
 -0.004964504386609832    4    3    9    6
 -0.009496725841528395    4    3   10    1
 0.02340816883450718    4    3   10    4
 0.0115603992447611    4    3   10    8
 0.2558815532370868    4    4    1    1
 0.2370333623172808    4    4    2    2
 0.236439735253991    4    4    3    3
 -0.02127845753228801    4    4    4    1
 0.2656438229384507    4    4    4    4
 0.2243859467822661    4    4    5    5
 -0.01176026519779273    4    4    6    2
 0.229145340044844    4    4    6    6
 -0.01480925213478223    4    4    7    3
 0.2642504962180341    4    4    7    7
 -0.03027270101277391    4    4    8    1
 0.01688285091593614    4    4    8    4
 0.2432466765496953    4    4    8    8
 0.01044714133057437    4    4    9    5
 0.2392039735647869    4    4    9    9
 0.02906138828529762    4    4   10    3
 -0.02231189480809043    4    4   10    7
 0.2636014546344313    4    4   10   10
 0.03392641640498041    5    1    3    2
 0.03573781680717883    5    1    5    1
 0.01442873073939906    5    1    5    4
 0.02815764250526118    5    1    6    3
 0.02082144433722345    5    1    7    2
 -0.01579271366236379    5    1    7    6
 0.02839098450838692    5    1    8    5
 -0.00435937500961272    5    1    9    1
 0.02114837522311895    5    1    9    4
 -0.03418151398305501    5    1    9    8
 -0.0045452123206992    5    1   10    2
 -0.03543352384265601    5    1   10    6
 0.05204950947849601    5    2    3    1
 0.00642418281987407    5    2    4    3
 0.0553130646379624    5    2    5    2
 0.03400849037762727    5    2    6    5
 0.006798557442218668    5    2    7    1
 0.04288321938809411    5    2    7    4
 0.03231262516350306    5    2    8    3
 -0.007369558219610761    5    2    8    7
 0.01245091616812568    5    2    9    2
 -0.05655915454173625    5    2    9    6
 -0.001672389417835799    5    2   10    1
 0.004846627892235281    5    2   10    4
 -0.05393824850777086    5    2   10    8
 0.06491697905308974    5    3    2    1
 0.0512630387927509    5    3    4    2
 0.07692214269655046    5    3    5    3
 0.02333282094306034    5    3    6    1
 -0.03516089446411663    5    3    6    4
 0.03414529734519568    5    3    7    5
 0.01288671998608879    5    3    8    2
 0.07546979762682272    5    3    8    6
 -0.01305580684211043    5    3    9    3
 0.05696249981932809    5    3    9    7
 -0.0221455037036987    5    3   10    5
 0.06352105812000854    5    3   10    9
 0.01538302920282493    5    4    3    2
 0.01442873073939906    5    4    5    1
 0.01430922507066997    5    4    5    4
 0.0005674853393469386    5    4    6    3
 0.0211783310421594    5    4    7    2
 -0.01304287081761515    5    4    7    6
 0.001990079333319533    5    4    8    5
 0.009849616804733841    5    4    9    1
 0.01974253888378693    5    4    9    4
 -0.01515923895648177    5    4    9    8
 0.008213725822630439    5    4   10    2
 -0.01490315334471626    5    4   10    6
 0.237094429707983    5    5    1    1
 0.2298080178802266    5    5    2    2
 0.2422968946915931    5    5    3    3
 -0.00538098737462674    5    5    4    1
 0.2243859467822661    5    5    4    4
 0.2416922547880093    5    5    5    5
 0.01580104527188463    5    5    6    2
 0.2428424956093431    5    5    6    6
 -0.004341087658272786    5    5    7    3
 0.2278404507053929    5    5    7    7
 0.01114982867495226    5    5    8    1
 0.005724643000806112    5    5    8    4
 0.2455486448348906    5    5    8    8
 -0.0148616686059855    5    5    9    5
 0.234136202923718    5    5    9    9
 -0.01067794802925474    5    5   10    3
 -0.005035381307167136    5    5   10    7
 0.2430170884619289    5    5   10   10
 0.007305312319597464    6    1    2    1
 -0.01080024170781863    6    1    4    2
 0.02333282094306033    6    1    5    3
 0.02567298504334155    6    1    6    1
 0.007020078683375268    6    1    6    4
 -0.008125021336681318    6    1    7    5
 0.02266968489346971    6    1    8    2
 0.02201487717859259    6    1    8    6
 -0.02349719990683545    6    1    9    3
 -0.009042293888716746    6    1    9    7
 -0.02367335262354889    6    1   10    5
 0.00680873725487848    6    1   10    9
 0.0167167210073938    6    2    1    1
 -0.01526659336192715    6    2    2    2
 0.02690443812712853    6    2    3    3
 -0.02804236059485465    6    2    4    1
 -0.01176026519779274    6    2    4    4
 0.01580104527188463    6    2    5    5
 0.03821783227221173    6    2    6    2
 0.01377837120834201    6    2    6    6
 -0.0228917704702996    6    2    7    3
 -0.01169377508759176    6    2    7    7
 0.01858937983479181    6    2    8    1
 0.02248025589752925    6    2    8    4
 0.02629251396175987    6    2    8    8
 -0.03710855245412809    6    2    9    5
 -0.01567150773171404    6    2    9    9
 -0.01717595822574949    6    2   10    3
 -0.02841537919455712    6    2   10    7
 0.01951147027660253    6    2   10   10
 0.02463244012849915    6    3    3    2
 0.02815764250526117    6    3    5    1
 0.0005674853393469448    6    3    5    4
 0.03724982273353233    6    3    6    3
 -0.0004386081699913319    6    3    7    2
 -0.002673522732714939    6    3    7    6
 0.03677657984104734    6    3    8    5
 -0.01923153093400964    6    3    9    1
 0.0009906213629833969    6    3    9    4
 -0.02623819257188048    6    3    9    8
 -0.01826113541505357    6    3   10    2
 -0.02882146734939624    6    3   10    6
 -0.04250369261708344    6    4    2    1
 -0.04919283133938888    6    4    4    2
 -0.03516089446411663    6    4    5    3
 0.007020078683375265    6    4    6    1
 0.03565978466058518    6    4    6    4
 -0.03204379014047405    6    4    7    5
 0.01377278182587906    6    4    8    2
 -0.03625256355813591    6    4    8    6
 -0.01203044052843007    6    4    9    3
 -0.05287517269877302    6    4    9    7
 -0.00708453977591726    6    4   10    5
 -0.04174070050941733    6    4   10    9
 0.04575887173342054    6    5    3    1
 -0.01035965696559234    6    5    4    3
 0.03400849037762727    6    5    5    2
 0.05170695667911508    6    5    6    5
 -0.01544096799245851    6    5    7    1
 0.01491626044160408    6    5    7    4
 0.041334839285195    6    5    8    3
 0.0074524589975517    6    5    8    7
 -0.0233270152722742    6    5    9    2
 -0.03652763282941133    6    5    9    6
 -0.01349053466395819    6    5   10    1
 -0.01505906864144654    6    5   10    4
 -0.04853578435853743    6    5   10    8
 0.240061265444572    6    6    1    1
 0.2329034939738338    6    6    2    2
 0.2446800510070792    6    6    3    3
 -0.005465049282049111    6    6    4    1
 0.229145340044844    6    6    4    4
 0.2428424956093431    6    6    5    5
 0.01377837120834202    6    6    6    2
 0.2490473134643816    6    6    6    6
 -0.005999073025147844    6    6    7    3
 0.2314602502377555    6    6    7    7
 0.01028877692536896    6    6    8    1
 0.00363159712971482    6    6    8    4
 0.2507318485113743    6    6    8    8
 -0.01572339088886521    6    6    9    5
 0.2397700437152151    6    6    9    9
 -0.01062806016565295    6    6   10    3
 -0.004116546883817743    6    6   10    7
 0.2482930619591877    6    6   10   10
 -0.0160544221493753    7    1    3    1
 0.02406295867833063    7    1    4    3
 0.006798557442218669    7    1    5    2
 -0.0154409679924585    7    1    6    5
 0.03187346316590979    7    1    7    1
 -0.006253999377433027    7    1    7    4
 0.0003112144708075072    7    1    8    3
 -0.02126610402992969    7    1    8    7
 0.02113579850930841    7    1    9    2
 -0.00530490555862469    7    1    9    6
 -0.01214464511149468    7    1   10    1
 0.03160086100134896    7    1   10    4
 0.01735682813519508    7    1   10    8
 0.02225947239939125    7    2    3    2
 0.02082144433722345    7    2    5    1
 0.0211783310421594    7    2    5    4
 -0.0004386081699913339    7    2    6    3
 0.03192470130391493    7    2    7    2
 -0.02061349502223836    7    2    7    6
 0.001071673088248697    7    2    8    5
 0.0155659470144535    7    2    9    1
 0.0305917796673105    7    2    9    4
 -0.02237043970217779    7    2    9    8
 0.01376401303625243    7    2   10    2
 -0.02151756781192432    7    2   10    6
 -0.03095150225364938    7    3    1    1
 0.01284923724303381    7    3    2    2
 -0.0262555762144634    7    3    3    3
 0.04224185720890331    7    3    4    1
 -0.01480925213478223    7    3    4    4
 -0.004341087658272786    7    3    5    5
 -0.02289177047029961    7    3    6    2
 -0.005999073025147829    7    3    6    6
 0.03460855440518039    7    3    7    3
 -0.01276259254839682    7    3    7    7
 0.007533583938395802    7    3    8    1
 -0.03118235015551069    7    3    8    4
 -0.0263746660955562    7    3    8    8
 0.0241368886960975    7    3    9    5
 0.01408811944964028    7    3    9    9
 -0.009405369850753527    7    3   10    3
 0.04425331587873083    7    3   10    7
 -0.03619921697764845    7    3   10   10
 0.04910943970711019    7    4    3    1
 -0.004131790174874403    7    4    4    3
 0.04288321938809411    7    4    5    2
 0.01491626044160408    7    4    6    5
 -0.006253999377433012    7    4    7    1
 0.0575462592408347    7    4    7    4
 0.006983629700168872    7    4    8    3
 0.002248910640313606    7    4    8    7
 0.02193286795105414    7    4    9    2
 -0.04546778238879815    7    4    9    6
 0.02386782149795016    7    4   10    1
 -0.009025706491396697    7    4   10    4
 -0.05232837971634575    7    4   10    8
 0.04054982483494963    7    5    2    1
 0.04845299107853558    7    5    4    2
 0.03414529734519569    7    5    5    3
 -0.008125021336681323    7    5    6    1
 -0.03204379014047404    7    5    6    4
 0.03438688440308761    7    5    7    5
 -0.01226399416365388    7    5    8    2
 0.03383242183562093    7    5    8    6
 0.0142584129746844    7    5    9    3
 0.05152026612056994    7    5    9    7
 0.006978421733133251    7    5   10    5
 0.0407428353934778    7    5   10    9
 -0.01619786645663281    7    6    3    2
 -0.01579271366236379    7    6    5    1
 -0.01304287081761514    7    6    5    4
 -0.002673522732714946    7    6    6    3
 -0.02061349502223835    7    6    7    2
 0.01571157432591787    7    6    7    6
 -0.00231407731992431    7    6    8    5
 -0.008629150443077879    7    6    9    1
 -0.02167116589213815    7    6    9    4
 0.01751188168539642    7    6    9    8
 -0.008948907609637881    7    6   10    2
 0.01640323746941854    7    6   10    6
 0.2547608173815838    7    7    1    1
 0.2388500634564008    7    7    2    2
 0.23872456347869    7    7    3    3
 -0.01816264058220815    7    7    4    1
 0.2642504962180341    7    7    4    4
 0.2278404507053928    7    7    5    5
 -0.01169377508759176    7    7    6    2
 0.2314602502377555    7    7    6    6
 -0.01276259254839681    7    7    7    3
 0.2683928988261937    7    7    7    7
 -0.02735450517210032    7    7    8    1
 0.0142214955168606    7    7    8    4
 0.2435195463293636    7    7    8    8
 0.01226723009825259    7    7    9    5
 0.2450515233578762    7    7    9    9
 0.02878609901121501    7    7   10    3
 -0.01940743102200715    7    7   10    7
 0.2662414458358797    7    7   10   10
 -0.01494633003048992    8    1    1    1
 -0.005297531823906088    8    1    2    2
 0.003085328262946974    8    1    3    3
 0.01275503612105456    8    1    4    1
 -0.03027270101277392    8    1    4    4
 0.01114982867495227    8    1    5    5
 0.0185893798347918    8    1    6    2
 0.01028877692536896    8    1    6    6
 0.007533583938395805    8    1    7    3
 -0.02735450517210038    8    1    7    7
 0.03020456760041477    8    1    8    1
 -0.0100695927964638    8    1    8    4
 0.0006729144250919411    8    1    8    8
 -0.01821348483367285    8    1    9    5
 -0.003518577614971421    8    1    9    9
 -0.02904400298348233    8    1   10    3
 0.01386839913067635    8    1   10    7
 -0.01632111900197419    8    1   10   10
 -0.002519018693224532    8    2    2    1
 -0.01830880252403953    8    2    4    2
 0.01288671998608879    8    2    5    3
 0.0226696848934697    8    2    6    1
 0.01377278182587905    8    2    6    4
 -0.01226399416365388    8    2    7    5
 0.02255671872508932    8    2    8    2
 0.01212055471060851    8    2    8    6
 -0.02191632801393242    8    2    9    3
 -0.01837532463381632    8    2    9    7
 -0.02221163794027019    8    2   10    5
 -0.001900888279066051    8    2   10    9
 0.03276980608408905    8    3    3    1
 0.001321725433359579    8    3    4    3
 0.03231262516350305    8    3    5    2
 0.04133483928519498    8    3    6    5
 0.0003112144708075097    8    3    7    1
 0.006983629700168864    8    3    7    4
 0.03949831114735319    8    3    8    3
 -0.003413822850422512    8    3    8    7
 -0.01423733346192368    8    3    9    2
 -0.03440681269535154    8    3    9    6
 -0.02057101027592398    8    3   10    1
 0.001312252614403177    8    3   10    4
 -0.03437856850467053    8    3   10    8
 0.03177884781523699    8    4    1    1
 -0.0114136207889222    8    4    2    2
 0.02492252182524271    8    4    3    3
 -0.04219416903407407    8    4    4    1
 0.01688285091593615    8    4    4    4
 0.005724643000806084    8    4    5    5
 0.02248025589752925    8    4    6    2
 0.003631597129714786    8    4    6    6
 -0.03118235015551069    8    4    7    3
 0.01422149551686059    8    4    7    7
 -0.01006959279646382    8    4    8    1
 0.03449814434255134    8    4    8    4
 0.02716375408574928    8    4    8    8
 -0.02124786394225499    8    4    9    5
 -0.01390089432482286    8    4    9    9
 0.01029864955789311    8    4   10    3
 -0.04433092796411733    8    4   10    7
 0.03684448045031868    8    4   10   10
 0.02517440739999707    8    5    3    2
 0.02839098450838692    8    5    5    1
 0.001990079333319536    8    5    5    4
 0.03677657984104732    8    5    6    3
 0.001071673088248698    8    5    7    2
 -0.002314077319924307    8    5    7    6
 0.03745155286862664    8    5    8    5
 -0.0183271157187698    8    5    9    1
 0.001299871164258152    8    5    9    4
 -0.02701524391135659    8    5    9    8
 -0.01847243738976133    8    5   10    2
 -0.03008952809158975    8    5   10    6
 0.06395220340341609    8    6    2    1
 0.05229284395320986    8    6    4    2
 0.07546979762682274    8    6    5    3
 0.02201487717859257    8    6    6    1
 -0.03625256355813591    8    6    6    4
 0.03383242183562093    8    6    7    5
 0.01212055471060852    8    6    8    2
 0.07824796814309955    8    6    8    6
 -0.01346252058431136    8    6    9    3
 0.0575094327450309    8    6    9    7
 -0.02310246536578821    8    6   10    5
 0.06601376990082923    8    6   10    9
 0.007150885761213521    8    7    3    1
 -0.01565534345893636    8    7    4    3
 -0.007369558219610761    8    7    5    2
 0.007452458997551693    8    7    6    5
 -0.02126610402992971    8    7    7    1
 0.002248910640313617    8    7    7    4
 -0.003413822850422514    8    7    8    3
 0.01686177986992522    8    7    8    7
 -0.01441654597846125    8    7    9    2
 0.008824708574210121    8    7    9    6
 0.009406173209851001    8    7   10    1
 -0.02323447864359304    8    7   10    4
 -0.008761203807618897    8    7   10    8
 0.2616506122055354    8    8    1    1
 0.226152501371643    8    8    2    2
 0.2600565679687477    8    8    3    3
 -0.0336524719575585    8    8    4    1
 0.2432466765496953    8    8    4    4
 0.2455486448348905    8    8    5    5
 0.02629251396175983    8    8    6    2
 0.2507318485113743    8    8    6    6
 -0.02637466609555621    8    8    7    3
 0.2435195463293637    8    8    7    7
 0.0006729144250919214    8    8    8    1
 0.02716375408574931    8    8    8    4
 0.2692428814237564    8    8    8    8
 -0.02758118076599007    8    8    9    5
 0.2316644073614367    8    8    9    9
 -0.001428357076541407    8    8   10    3
 -0.03413672257306886    8    8   10    7
 0.2747659383175733    8    8   10   10
 -0.001879103200497769    9    1    3    2
 -0.004359375009612717    9    1    5    1
 0.009849616804733837    9    1    5    4
 -0.01923153093400964    9    1    6    3
 0.0155659470144535    9    1    7    2
 -0.008629150443077882    9    1    7    6
 -0.01832711571876981    9    1    8    5
 0.01731453509327346    9    1    9    1
 0.01427057199896881    9    1    9    4
 0.002631337975719484    9    1    9    8
 0.01601693798736997    9    1   10    2
 0.004397654469339074    9    1   10    6
 -0.001892669875663544    9    2    3    1
 0.01559732494818581    9    2    4    3
 0.01245091616812568    9    2    5    2
 -0.02332701527227419    9    2    6    5
 0.02113579850930842    9    2    7    1
 0.02193286795105414    9    2    7    4
 -0.01423733346192369    9    2    8    3
 -0.01441654597846126    9    2    8    7
 0.03449663975329745    9    2    9    2
 -0.01241008781103912    9    2    9    6
 0.0124375539907198    9    2   10    1
 0.01972929713737631    9    2   10    4
 0.002270853216608447    9    2   10    8
 0.001838788019779343    9    3    2    1
 0.01845083419064213    9    3    4    2
 -0.01305580684211042    9    3    5    3
 -0.02349719990683544    9    3    6    1
 -0.01203044052843007    9    3    6    4
 0.0142584129746844    9    3    7    5
 -0.02191632801393242    9    3    8    2
 -0.01346252058431137    9    3    8    6
 0.02367925540891432    9    3    9    3
 0.01850215071102733    9    3    9    7
 0.02256847310844021    9    3   10    5
 0.00174882171955336    9    3   10    9
 0.02218225489287436    9    4    3    2
 0.02114837522311895    9    4    5    1
 0.01974253888378693    9    4    5    4
 0.0009906213629833998    9    4    6    3
 0.0305917796673105    9    4    7    2
 -0.02167116589213815    9    4    7    6
 0.001299871164258147    9    4    8    5
 0.01427057199896881    9    4    9    1
 0.03088284051272714    9    4    9    4
 -0.02315222619865581    9    4    9    8
 0.01377802838853351    9    4   10    2
 -0.02178391964774782    9    4   10    6
 -0.01707078631557009    9    5    1    1
 0.01463217833435423    9    5    2    2
 -0.02676886058189051    9    5    3    3
 0.0278567037235738    9    5    4    1
 0.01044714133057439    9    5    4    4
 -0.01486166860598549    9    5    5    5
 -0.03710855245412809    9    5    6    2
 -0.0157233908888652    9    5    6    6
 0.0241368886960975    9    5    7    3
 0.01226723009825258    9    5    7    7
 -0.01821348483367285    9    5    8    1
 -0.021247863942255    9    5    8    4
 -0.02758118076599006    9    5    8    8
 0.03827756829150157    9    5    9    5
 0.01551409536214838    9    5    9    9
 0.01752008773269645    9    5   10    3
 0.02862742857270733    9    5   10    7
 -0.02021975621451292    9    5   10   10
 -0.0547541560918073    9    6    3    1
 -0.004964504386609829    9    6    4    3
 -0.05655915454173626    9    6    5    2
 -0.03652763282941134    9    6    6    5
 -0.005304905558624695    9    6    7    1
 -0.04546778238879814    9    6    7    4
 -0.03440681269535155    9    6    8    3
 0.008824708574210124    9    6    8    7
 -0.01241008781103911    9    6    9    2
 0.06214605146192387    9    6    9    6
 0.001542754510102818    9    6   10    1
 -0.005228666347888992    9    6   10    4
 0.05916756939925414    9    6   10    8
 0.06563515832714903    9    7    2    1
 0.07503335707514967    9    7    4    2
 0.05696249981932811    9    7    5    3
 -0.009042293888716753    9    7    6    1
 -0.05287517269877302    9    7    6    4
 0.05152026612056995    9    7    7    5
 -0.01837532463381633    9    7    8    2
 0.0575094327450309    9    7    8    6
 0.01850215071102733    9    7    9    3
 0.08307155572183593    9    7    9    7
 0.009435642956561043    9    7   10    5
 0.06683155135786736    9    7   10    9
 -0.03268761641578195    9    8    3    2
 -0.03418151398305501    9    8    5    1
 -0.01515923895648177    9    8    5    4
 -0.02623819257188048    9    8    6    3
 -0.02237043970217778    9    8    7    2
 0.01751188168539641    9    8    7    6
 -0.02701524391135661    9    8    8    5
 0.002631337975719483    9    8    9    1
 -0.0231522261986558    9    8    9    4
 0.03639223827837853    9    8    9    8
 0.002969998865185514    9    8   10    2
 0.03752473602450922    9    8   10    6
 0.228278570062368    9    9    1    1
 0.2468145289073227    9    9    2    2
 0.2260180931131282    9    9    3    3
 0.01718157780746426    9    9    4    1
 0.2392039735647868    9    9    4    4
 0.234136202923718    9    9    5    5
 -0.01567150773171407    9    9    6    2
 0.2397700437152151    9    9    6    6
 0.01408811944964029    9    9    7    3
 0.2450515233578762    9    9    7    7
 -0.003518577614971405    9    9    8    1
 -0.01390089432482287    9    9    8    4
 0.2316644073614367    9    9    8    8
 0.01551409536214837    9    9    9    5
 0.2574544546785745    9    9    9    9
 0.003102800158202507    9    9   10    3
 0.02052930274704665    9    9   10    7
 0.2356722432783294    9    9   10   10
 0.00735445659824965   10    1    3    1
 -0.009496725841528388   10    1    4    3
 -0.001672389417835798   10    1    5    2
 -0.01349053466395818   10    1    6    5
 -0.01214464511149468   10    1    7    1
 0.02386782149795016   10    1    7    4
 -0.02057101027592397   10    1    8    3
 0.009406173209850988   10    1    8    7
 0.01243755399071978   10    1    9    2
 0.00154275451010282   10    1    9    6
 0.0267468938242777   10    1   10    1
 -0.01417185758147388   10    1   10    4
 -0.008383926034130948   10    1   10    8
 -0.002425123353648024   10    2    3    2
 -0.004545212320699194   10    2    5    1
 0.008213725822630436   10    2    5    4
 -0.01826113541505356   10    2    6    3
 0.01376401303625243   10    2    7    2
 -0.008948907609637881   10    2    7    6
 -0.01847243738976134   10    2    8    5
 0.01601693798736997   10    2    9    1
 0.01377802838853351   10    2    9    4
 0.002969998865185506   10    2    9    8
 0.01586636127641766   10    2   10    2
 0.005181639750197194   10    2   10    6
 0.01523549574785124   10    3    1    1
 0.004167621598776203   10    3    2    2
 -0.001149701253047556   10    3    3    3
 -0.01383337516603193   10    3    4    1
 0.02906138828529763   10    3    4    4
 -0.01067794802925473   10    3    5    5
 -0.01717595822574948   10    3    6    2
 -0.01062806016565296   10    3    6    6
 -0.009405369850753516   10    3    7    3
 0.028786099011215   10    3    7    7
 -0.02904400298348233   10    3    8    1
 0.0102986495578931   10    3    8    4
 -0.001428357076541433   10    3    8    8
 0.01752008773269644   10    3    9    5
 0.003102800158202484   10    3    9    9
 0.03002206965119958   10    3   10    3
 -0.01584980840398235   10    3   10    7
 0.01767755974241754   10    3   10   10
 -0.0172999796949076   10    4    3    1
 0.02340816883450716   10    4    4    3
 0.00484662789223528   10    4    5    2
 -0.01505906864144653   10    4    6    5
 0.03160086100134895   10    4    7    1
 -0.009025706491396697   10    4    7    4
 0.001312252614403163   10    4    8    3
 -0.02323447864359303   10    4    8    7
 0.01972929713737632   10    4    9    2
 -0.005228666347888997   10    4    9    6
 -0.01417185758147388   10    4   10    1
 0.0334628664059742   10    4   10    4
 0.01970892861275925   10    4   10    8
 -0.006834186660492418   10    5    2    1
 0.008928514502162511   10    5    4    2
 -0.02214550370369869   10    5    5    3
 -0.02367335262354887   10    5    6    1
 -0.007084539775917255   10    5    6    4
 0.006978421733133247   10    5    7    5
 -0.0222116379402702   10    5    8    2
 -0.02310246536578822   10    5    8    6
 0.02256847310844022   10    5    9    3
 0.009435642956561035   10    5    9    7
 0.0243347552311526   10    5   10    5
 -0.007750797315741038   10    5   10    9
 -0.03376264475555001   10    6    3    2
 -0.035433523842656   10    6    5    1
 -0.01490315334471627   10    6    5    4
 -0.02882146734939623   10    6    6    3
 -0.02151756781192431   10    6    7    2
 0.01640323746941854   10    6    7    6
 -0.03008952809158976   10    6    8    5
 0.004397654469339074   10    6    9    1
 -0.02178391964774783   10    6    9    4
 0.03752473602450922   10    6    9    8
 0.0051816397501972   10    6   10    2
 0.0391686877569254   10    6   10    6
 -0.04127509691105151   10    7    1    1
 0.01602046781100209   10    7    2    2
 -0.03270027881896063   10    7    3    3