 &FCI NORB=  10,NELEC=10,MS2=0,
  ORBSYM=1,1,1,1,1,1,1,1,1,1,
  ISYM=1,
 &END
 0.6312943682753949    1    1    1    1
 -0.0005275565459038529    1    1    2    1
 0.1778434246547138    1    1    2    2
 -0.004298793429622628    1    1    3    1
 -0.0002245702787460092    1    1    3    2
 0.3192094041692085    1    1    3    3
 0.005200703241028053    1    1    4    1
 -0.001426770702072217    1    1    4    2
 0.0006084879929808894    1    1    4    3
 0.3218924540079456    1    1    4    4
 -0.001594059536500993    1    1    5    1
 -0.000529931189186178    1    1    5    2
 0.0004840349761838934    1    1    5    3
 -0.002380310203871028    1    1    5    4
 0.2019267149120738    1    1    5    5
 -0.004298794406238138    1    1    6    1
 0.001748577201238267    1    1    6    2
 -0.001021976752065498    1    1    6    3
 0.0006084880174941909    1    1    6    4
 -0.0006183901603241007    1    1    6    5
 0.3192094042565221    1    1    6    6
 -0.001125041021006769    1    1    7    1
 -0.0007319187526271479    1    1    7    2
 0.0002636284535717755    1    1    7    3
 0.0005189879457033998    1    1    7    4
 0.001325222961555158    1    1    7    5
 0.002858072249073806    1    1    7    6
 0.2037318335807679    1    1    7    7
 0.00159405988300702    1    1    8    1
 -0.000166367692769679    1    1    8    2
 0.0006183907060207836    1    1    8    3
 0.002380311765887976    1    1    8    4
 0.001130899443707097    1    1    8    5
 -0.0004840349183074207    1    1    8    6
 0.0001919940825974438    1    1    8    7
 0.2019267149521815    1    1    8    8
 0.001125041884897646    1    1    9    1
 -8.949624813479114e-05    1    1    9    2
 -0.002858073434518726    1    1    9    3
 -0.0005189879846484173    1    1    9    4
 0.0001919940678279898    1    1    9    5
 -0.0002636280376481675    1    1    9    6
 -3.032263822065577e-05    1    1    9    7
 0.001325222943108279    1    1    9    8
 0.2037318336341569    1    1    9    9
 -0.0005275558787877313    1    1   10    1
 3.035671510288833e-05    1    1   10    2
 0.001748577225245275    1    1   10    3
 -0.00142677053999816    1    1   10    4
 0.000166367707824194    1    1   10    5
 -0.0002245703141626094    1    1   10    6
 8.949624511374245e-05    1    1   10    7
 0.0005299310078042702    1    1   10    8
 0.0007319187001210289    1    1   10    9
 0.1778434246185303    1    1   10   10
 -0.0005275565459038525    2    1    1    1
 1.515156562112427e-05    2    1    2    1
 -0.0002315581253358182    2    1    2    2
 -4.036452287641986e-05    2    1    3    1
 -2.82097425515712e-06    2    1    3    2
 -0.0004248364344465099    2    1    3    3
 -5.491030012596607e-05    2    1    4    1
 -6.116639410551718e-06    2    1    4    2
 5.16143380590103e-06    2    1    4    3
 0.0005189870506580555    2    1    4    4
 -3.479846130893383e-06    2    1    5    1
 -5.007617916443746e-05    2    1    5    2
 2.000881693688736e-06    2    1    5    3
 7.513306043078253e-05    2    1    5    4
 0.0005682023226229699    2    1    5    5
 4.69081665355351e-05    2    1    6    1
 7.334838579034647e-06    2    1    6    2
 -7.567111259931488e-06    2    1    6    3
 -1.341879954058807e-05    2    1    6    4
 -6.090262116234157e-06    2    1    6    5
 0.0002538530904746624    2    1    6    6
 -6.399251465971614e-06    2    1    7    1
 -2.806723072894022e-05    2    1    7    2
 2.784426365246918e-06    2    1    7    3
 6.777508678820167e-06    2    1    7    4
 1.364235710099211e-05    2    1    7    5
 -8.790068606532659e-05    2    1    7    6
 0.0002651516626010655    2    1    7    7
 -1.462515062717178e-05    2    1    8    1
 -4.739706865663338e-06    2    1    8    2
 7.741032088226204e-07    2    1    8    3
 1.609623820503576e-05    2    1    8    4
 4.939057680851455e-06    2    1    8    5
 -1.258130220318836e-06    2    1    8    6
 1.826077761822052e-06    2    1    8    7
 0.0001875183878118885    2    1    8    8
 2.124878340956788e-06    2    1    9    1
 -6.768962461243474e-09    2    1    9    2
 9.056928430398252e-06    2    1    9    3
 3.238426599820178e-06    2    1    9    4
 7.791473592622482e-08    2    1    9    5
 1.744006090179687e-06    2    1    9    6
 1.492849598902161e-07    2    1    9    7
 -5.912114458782087e-07    2    1    9    8
 -0.0001680858423846167    2    1    9    9
 1.078806527424052e-06    2    1   10    1
 2.769186925000905e-07    2    1   10    2
 -1.970027965136357e-06    2    1   10    3
 3.619548888966175e-06    2    1   10    4
 -3.03298713233945e-07    2    1   10    5
 6.636410524082431e-07    2    1   10    6
 -1.042985653163486e-07    2    1   10    7
 -7.758185124411659e-06    2    1   10    8
 -4.905898235593009e-08    2    1   10    9
 -1.116740196707997e-05    2    1   10   10
 0.1778434246547139    2    2    1    1
 -0.0002315581253358235    2    2    2    1
 0.6165665764309105    2    2    2    2
 -0.001583061322971827    2    2    3    1
 -0.0002697314644981122    2    2    3    2
 0.1210616867377606    2    2    3    3
 -0.0007888042849121292    2    2    4    1
 -0.00282359351483719    2    2    4    2
 0.000501582010900096    2    2    4    3
 0.203731833485464    2    2    4    4
 -0.001420167336675692    2    2    5    1
 0.006230705191457166    2    2    5    2
 -4.96456147247781e-05    2    2    5    3
 -0.002431343376065872    2    2    5    4
 0.3238665949382857    2    2    5    5
 0.0008071835548428448    2    2    6    1
 0.001733123749829734    2    2    6    2
 -0.0006387277997604744    2    2    6    3
 -0.001221291911418304    2    2    6    4
 -0.0004336616736861031    2    2    6    5
 0.2021934636124283    2    2    6    6
 -0.001712860033402821    2    2    7    1
 0.003916555628865163    2    2    7    2
 -0.0001083566126538751    2    2    7    3
 0.0002651507745413647    2    2    7    4
 -4.631693411606946e-08    2    2    7    5
 0.002832895373306877    2    2    7    6
 0.3162445527600147    2    2    7    7
 -0.0006599176570025794    2    2    8    1
 0.0007990673023841142    2    2    8    2
 0.0001833029212720997    2    2    8    3
 0.001724486814326392    2    2    8    4
 0.0003277174496091342    2    2    8    5
 -0.0001566124513162086    2    2    8    6
 0.0002745809174675472    2    2    8    7
 0.1369754523178041    2    2    8    8
 0.000231679278636681    2    2    9    1
 -0.0007046057760199075    2    2    9    2
 -0.0001928379226519839    2    2    9    3
 0.0001680850365456102    2    2    9    4
 -0.0002327055339702368    2    2    9    5
 0.0001089298115074446    2    2    9    6
 -7.308071268402581e-05    2    2    9    7
 0.0003970904853402097    2    2    9    8
 0.1017585517913825    2    2    9    9
 -1.116729366190802e-05    2    2   10    1
 -0.0001188872418356546    2    2   10    2
 0.0004055389556134122    2    2   10    3
 -2.158135310673082e-05    2    2   10    4
 -0.000418068794081091    2    2   10    5
 4.912400372978167e-05    2    2   10    6
 0.0001438704242892449    2    2   10    7
 -0.0005967808526429318    2    2   10    8
 0.0001324633457995275    2    2   10    9
 0.1059935121721237    2    2   10   10
 -0.004298793429622617    3    1    1    1
 -4.03645228764189e-05    3    1    2    1
 -0.001583061322971834    3    1    2    2
 0.003884269322517858    3    1    3    1
 -2.303012131943339e-05    3    1    3    2
 -0.003590208710601002    3    1    3    3
 5.002256661901462e-05    3    1    4    1
 3.74569281965552e-05    3    1    4    2
 0.0001838376029245412    3    1    4    3
 -0.002380310247438874    3    1    4    4
 0.0001251233048708284    3    1    5    1
 3.027289554571525e-05    3    1    5    2
 1.438719534955003e-05    3    1    5    3
 -8.73394196911047e-05    3    1    5    4
 -0.00174842950071799    3    1    5    5
 -0.0001057070854815408    3    1    6    1
 -4.901978338863699e-05    3    1    6    2
 -0.0001812355885904389    3    1    6    3
 0.0001041871487294271    3    1    6    4
 1.88242708735871e-05    3    1    6    5
 -0.002217667771703183    3    1    6    6
 0.0001235914288826367    3    1    7    1
 3.866329063210331e-05    3    1    7    2
 4.909261204680519e-05    3    1    7    3
 -1.609623637577195e-05    3    1    7    4
 -2.958412079457937e-05    3    1    7    5
 6.803848019187726e-05    3    1    7    6
 -0.001724485978794327    3    1    7    7
 6.287255609381034e-05    3    1    8    1
 8.64017706077534e-06    3    1    8    2
 2.923171258307829e-05    3    1    8    3
 -0.0002955441137799234    3    1    8    4
 5.17573535239464e-06    3    1    8    5
 2.130769931096768e-06    3    1    8    6
 -6.981415882745288e-06    3    1    8    7
 0.0007927101580932649    3    1    8    8
 -0.0001755630952838941    3    1    9    1
 6.85577879807039e-06    3    1    9    2
 -1.400093034472456e-05    3    1    9    3
 -7.513306491860126e-05    3    1    9    4
 1.300738111289124e-05    3    1    9    5
 -3.532052345344987e-05    3    1    9    6
 -7.028100818331724e-06    3    1    9    7
 1.544818307417665e-05    3    1    9    8
 -0.002431343212038066    3    1    9    9
 4.690815627893271e-05    3    1   10    1
 -4.292875874504943e-07    3    1   10    2
 3.041819754405959e-05    3    1   10    3
 -1.992016355859875e-05    3    1   10    4
 1.05962113082844e-05    3    1   10    5
 -1.294762346709984e-05    3    1   10    6
 -1.742307344367725e-06    3    1   10    7
 0.000117854900293952    3    1   10    8
 0.0003063989774621452    3    1   10    9
 0.0008071834955854986    3    1   10   10
 -0.0002245702787460091    3    2    1    1
 -2.820974255157137e-06    3    2    2    1
 -0.0002697314644981126    3    2    2    2
 -2.303012131943306e-05    3    2    3    1
 2.202928458984778e-06    3    2    3    2
 0.0002898503040688865    3    2    3    3
 7.790920993743512e-06    3    2    4    1
 9.377311521317082e-06    3    2    4    2
 -5.883647555110953e-06    3    2    4    3
 -0.0001919940548001121    3    2    4    4
 2.983606215764185e-06    3    2    5    1
 -1.595240565974239e-05    3    2    5    2
 -1.327475184961163e-06    3    2    5    3
 -1.300737994742118e-05    3    2    5    4
 -0.0001799596259578027    3    2    5    5
 -1.294762288193908e-05    3    2    6    1
 -6.649969173065777e-06    3    2    6    2
 3.365077229487934e-06    3    2    6    3
 2.366888503551257e-06    3    2    6    4
 2.022448337478726e-06    3    2    6    5
 -0.0002500355533865957    3    2    6    6
 3.308240824091039e-06    3    2    7    1
 -6.516988357529201e-06    3    2    7    2
 -2.320195569357277e-06    3    2    7    3
 -1.826076994195236e-06    3    2    7    4
 -7.843753120634996e-06    3    2    7    5
 8.025247667728243e-06    3    2    7    6
 -0.0002745806641683849    3    2    7    7
 2.468780959490388e-06    3    2    8    1
 2.994292352919787e-07    3    2    8    2
 -4.911049298059714e-07    3    2    8    3
 -6.981412612580238e-06    3    2    8    4
 -2.11321182541136e-06    3    2    8    5
 5.55497346653067e-07    3    2    8    6
 -8.576254527324005e-07    3    2    8    7
 -2.944354495548677e-05    3    2    8    8
 1.636594276704481e-06    3    2    9    1
 8.647661152240529e-07    3    2    9    2
 -5.786704067297507e-07    3    2    9    3
 7.791863329504473e-08    3    2    9    4
 8.315725763157885e-08    3    2    9    5
 1.220937091074513e-07    3    2    9    6
 2.219750020300521e-07    3    2    9    7
 5.536586264770934e-07    3    2    9    8
 0.0002327056046919349    3    2    9    9
 6.636406150562355e-07    3    2   10    1
 3.027617058293499e-08    3    2   10    2
 1.175625548563995e-06    3    2   10    3
 -2.615860923932258e-07    3    2   10    4
 2.70043477804659e-07    3    2   10    5
 -1.272104527006573e-07    3    2   10    6
 -3.484246227189022e-07    3    2   10    7
 -3.718491440809077e-07    3    2   10    8
 -6.720364549215766e-06    3    2   10    9
 4.912402162880232e-05    3    2   10   10
 0.3192094041692086    3    3    1    1
 -0.0004248364344465088    3    3    2    1
 0.1210616867377605    3    3    2    2
 -0.003590208710600992    3    3    3    1
 0.0002898503040688872    3    3    3    2
 0.6190442941822277    3    3    3    3
 0.0023772962700549    3    3    4    1
 -0.0005485551394587293    3    3    4    2
 -0.001289088404783438    3    3    4    3
 0.2019267149477502    3    3    4    4
 7.550871436924926e-05    3    3    5    1
 -5.136223616752748e-05    3    3    5    2
 -0.0003559946487429753    3    3    5    3
 -0.001748429467052596    3    3    5    4
 0.1360046532140889    3    3    5    5
 -0.002217668156817303    3    3    6    1
 0.0006377307116301658    3    3    6    2
 0.00105647542245672    3    3    6    3
 0.0009412970674715039    3    3    6    4
 -0.0002093442325560441    3    3    6    5
 0.2012056807266087    3    3    6    6
 0.0003165639096912357    3    3    7    1
 -0.0001205500612938386    3    3    7    2
 -0.001177460536522652    3    3    7    3
 0.0001875188896330526    3    3    7    4
 0.0005983866229313025    3    3    7    5
 0.001874997869670663    3    3    7    6
 0.1369754523007831    3    3    7    7
 0.001378076902744239    3    3    8    1
 7.772197474243412e-06    3    3    8    2
 6.891440572379419e-05    3    3    8    3
 -0.0007927098220156473    3    3    8    4
 0.000778506791088275    3    3    8    5
 -0.0002379328273827606    3    3    8    6
 2.944348374758648e-05    3    3    8    7
 0.1765723510845746    3    3    8    8
 -0.0001338875227615156    3    3    9    1
 -0.0001698524925562125    3    3    9    2
 -0.006431498637942928    3    3    9    3
 -0.0005682013707966555    3    3    9    4
 0.0001799596047612295    3    3    9    5
 -0.0003639354744741467    3    3    9    6
 7.769239877543214e-05    3    3    9    7
 0.001427071285018664    3    3    9    8
 0.3238665949769742    3    3    9    9
 0.0002538532575611452    3    3   10    1
 3.630372461983083e-05    3    3   10    2
 0.002694092961346057    3    3   10    3
 -0.001339737283287456    3    3   10    4
 0.0001280366728467143    3    3   10    5
 -0.0002500355413318314    3    3   10    6
 4.585409542445752e-05    3    3   10    7
 0.0005014476409421487    3    3   10    8
 -0.002602099040355157    3    3   10    9
 0.2021934635651777    3    3   10   10
 0.005200703241028003    4    1    1    1
 -5.491030012596688e-05    4    1    2    1
 -0.0007888042849121476    4    1    2    2
 5.002256661900512e-05    4    1    3    1
 7.790920993743611e-06    4    1    3    2
 0.002377296270054932    4    1    3    3
 0.004146814632246722    4    1    4    1
 7.993162385751298e-05    4    1    4    2
 -0.000224064585316193    4    1    4    3
 0.005200702157892747    4    1    4    4
 -0.0002240645865844718    4    1    5    1
 0.0003164036007606303    4    1    5    2
 -2.107293814976751e-05    4    1    5    3
 5.002258000157508e-05    4    1    5    4
 0.00237729588152376    4    1    5    5
 5.002256150185295e-05    4    1    6    1
 -6.286030522833339e-06    4    1    6    2
 0.0001053272682926595    4    1    6    3
 -0.0002240645917890385    4    1    6    4
 7.013476732099029e-05    4    1    6    5
 0.002377296288244491    4    1    6    6
 7.993167136968557e-05    4    1    7    1
 0.0001248977343696949    4    1    7    2
 -4.99205497985677e-06    4    1    7    3
 -5.491024516155126e-05    4    1    7    4
 -6.286033944768295e-06    4    1    7    5
 0.0003164036499140491    4    1    7    6
 -0.0007888041670570218    4    1    7    7
 0.0002240646444849034    4    1    8    1
 4.992065172682217e-06    4    1    8    2
 -7.013476898081207e-05    4    1    8    3
 -5.002254583550829e-05    4    1    8    4
 -0.0001053272675664552    4    1    8    5
 2.107293516664023e-05    4    1    8    6
 -7.790924907158894e-06    4    1    8    7
 0.002377295861319678    4    1    8    8
 -7.99316597488534e-05    4    1    9    1
 2.077318360784526e-06    4    1    9    2
 -0.0003164036822480713    4    1    9    3
 5.491025323396464e-05    4    1    9    4
 -7.790918941008759e-06    4    1    9    5
 4.992065572557942e-06    4    1    9    6
 -1.206140635000418e-06    4    1    9    7
 -6.286033597440714e-06    4    1    9    8
 -0.0007888041760468801    4    1    9    9
 -5.491028725550476e-05    4    1   10    1
 1.206141322042862e-06    4    1   10    2
 -6.286029653300744e-06    4    1   10    3
 7.99316421883778e-05    4    1   10    4
 -4.99205940346116e-06    4    1   10    5
 7.790921087865707e-06    4    1   10    6
 -2.077317950422882e-06    4    1   10    7
 -0.000316403623162596    4    1   10    8
 -0.0001248977333299254    4    1   10    9
 -0.0007888042883022269    4    1   10   10
 -0.001426770702072213    4    2    1    1
 -6.116639410551742e-06    4    2    2    1
 -0.002823593514837192    4    2    2    2
 3.745692819655598e-05    4    2    3    1
 9.377311521317074e-06    4    2    3    2
 -0.0005485551394587367    4    2    3    3
 7.993162385751238e-05    4    2    4    1
 0.0001182417602723407    4    2    4    2
 -8.151666122613768e-06    4    2    4    3
 -0.001125041931835038    4    2    4    4
 4.260778457253151e-05    4    2    5    1
 -0.0002851764983263933    4    2    5    2
 -7.836501993281481e-06    4    2    5    3
 0.0001755630139616047    4    2    5    4
 0.0001338875457080001    4    2    5    5
 -1.992015963113008e-05    4    2    6    1
 -3.353895354915136e-05    4    2    6    2
 7.356407570279584e-06    4    2    6    3
 1.586074210470864e-05    4    2    6    4
 1.555538000171493e-05    4    2    6    5
 -0.001339737290754698    4    2    6    6
 2.166472380414726e-05    4    2    7    1
 2.19320412702014e-05    4    2    7    2
 -1.258283577423458e-06    4    2    7    3
 -6.39924371473672e-06    4    2    7    4
 -5.145433477167274e-05    4    2    7    5
 -1.786788296955367e-06    4    2    7    6
 -0.00171285977365534    4    2    7    7
 -7.783748614928463e-07    4    2    8    1
 -4.981654710622169e-06    4    2    8    2
 -4.879819733317562e-06    4    2    8    3
 -0.0001235914421208364    4    2    8    4
 -1.831136664145532e-05    4    2    8    5
 4.405490912167607e-06    4    2    8    6
 -3.308244442531571e-06    4    2    8    7
 0.0003165635107777091    4    2    8    8
 -1.671338846121667e-06    4    2    9    1
 1.058492277149996e-05    4    2    9    2
 6.272663239010282e-06    4    2    9    3
 2.124884258785829e-06    4    2    9    4
 1.636592670502289e-06    4    2    9    5
 -1.285444155801839e-06    4    2    9    6
 4.88105128261687e-07    4    2    9    7
 -4.034951385584793e-06    4    2    9    8
 -0.0002316792631618183    4    2    9    9
 3.619546302530094e-06    4    2   10    1
 1.091768078207003e-06    4    2   10    2
 -3.289977742091406e-06    4    2   10    3
 2.275980509754389e-05    4    2   10    4
 4.493245451804771e-06    4    2   10    5
 -2.615855116488173e-07    4    2   10    6
 -2.075023076441734e-06    4    2   10    7
 -1.910997788361094e-05    4    2   10    8
 -5.200407222454674e-06    4    2   10    9
 -2.158146930711371e-05    4    2   10   10
 0.0006084879929808859    4    3    1    1
 5.161433805901274e-06    4    3    2    1
 0.0005015820109000971    4    3    2    2
 0.0001838376029245425    4    3    3    1
 -5.883647555110986e-06    4    3    3    2
 -0.001289088404783429    4    3    3    3
 -0.0002240645853161929    4    3    4    1
 -8.151666122613981e-06    4    3    4    2
 9.099822910725838e-05    4    3    4    3
 -0.001594059847206009    4    3    4    4
 -1.340101311160691e-05    4    3    5    1
 -4.540445719693878e-05    4    3    5    2
 -1.611968456492376e-06    4    3    5    3
 0.0001251233145949029    4    3    5    4
 7.550857543926672e-05    4    3    5    5
 0.0001041871502950062    4    3    6    1
 6.161541673030436e-06    4    3    6    2
 -1.990094727871098e-07    4    3    6    3
 9.068513467438166e-06    4    3    6    4
 -4.294600169467067e-06    4    3    6    5
 0.0009412970538534179    4    3    6    6
 7.783758464146259e-07    4    3    7    1
 -1.386999944932959e-05    4    3    7    2
 1.346077813710873e-05    4    3    7    3
 1.46251320516366e-05    4    3    7    4
 4.24022857665806e-06    4    3    7    5
 -5.930436536960577e-06    4    3    7    6
 0.0006599176428870588    4    3    7    7
 -3.868510895217808e-05    4    3    8    1
 -3.980890325522558e-06    4    3    8    2
 -7.613350721495512e-06    4    3    8    3
 6.287253743425373e-05    4    3    8    4
 2.960319419843901e-06    4    3    8    5
 1.628522759952065e-06    4    3    8    6
 2.468784351739852e-06    4    3    8    7
 -0.001378076889103713    4    3    8    8
 -4.260779134927008e-05    4    3    9    1
 1.328519350152078e-06    4    3    9    2
 -6.658081916742827e-05    4    3    9    3
 3.479844312546512e-06    4    3    9    4
 -2.983606737195626e-06    4    3    9    5
 1.383112936972704e-06    4    3    9    6
 -8.808761227927948e-07    4    3    9    7
 -1.749608381079705e-05    4    3    9    8
 -0.00142016728190245    4    3    9    9
 -1.341879755307945e-05    4    3   10    1
 -7.835084802925606e-08    4    3   10    2
 -2.20915031317995e-05    4    3   10    3
 1.586074167513855e-05    4    3   10    4
 -3.624457382139828e-06    4    3   10    5
 2.366888078055093e-06    4    3   10    6
 -5.79193524023579e-07    4    3   10    7
 -2.848008541552513e-06    4    3   10    8
 -9.459782380063964e-06    4    3   10    9
 -0.001221291940336867    4    3   10   10
 0.3218924540079455    4    4    1    1
 0.0005189870506580574    4    4    2    1
 0.203731833485464    4    4    2    2
 -0.002380310247438878    4    4    3    1
 -0.000191994054800113    4    4    3    2
 0.2019267149477503    4    4    3    3
 0.005200702157892759    4    4    4    1
 -0.001125041931835044    4    4    4    2
 -0.001594059847206012    4    4    4    3
 0.6312943682522341    4    4    4    4
 0.0006084880513048691    4    4    5    1
 0.002858070880180381    4    4    5    2
 0.0004840352714839883    4    4    5    3
 -0.004298793217920083    4    4    5    4
 0.3192094042942268    4    4    5    5
 -0.00238031064588771    4    4    6    1
 0.001325222977315002    4    4    6    2
 -0.001130899472512204    4    4    6    3
 -0.001594058352948148    4    4    6    4
 -0.0006183907749177562    4    4    6    5
 0.2019267148884664    4    4    6    6
 -0.00142677038282405    4    4    7    1
 -0.0007319186330291844    4    4    7    2
 0.0001663677258680492    4    4    7    3
 -0.0005275531287384269    4    4    7    4
 0.001748576864677371    4    4    7    5
 -0.0005299309149153532    4    4    7    6
 0.1778434245676354    4    4    7    7
 -0.0006084880037589037    4    4    8    1
 -0.000263628116838797    4    4    8    2
 0.0006183902428896588    4    4    8    3
 0.004298797173385951    4    4    8    4
 0.001021976709450283    4    4    8    5
 -0.000484035347690477    4    4    8    6
 0.0002245700975715439    4    4    8    7
 0.3192094043116708    4    4    8    8
 0.001426770675588724    4    4    9    1
 -8.94962309357705e-05    4    4    9    2
 0.0005299306618339258    4    4    9    3
 0.0005275530706955911    4    4    9    4
 0.0002245703395654935    4    4    9    5
 -0.0001663676337161615    4    4    9    6
 -3.035671448637484e-05    4    4    9    7
 0.001748576923045502    4    4    9    8
 0.1778434246155376    4    4    9    9
 0.0005189872380479057    4    4   10    1
 3.032261886664798e-05    4    4   10    2
 0.001325222994588702    4    4   10    3
 -0.001125041397252483    4    4   10    4
 0.0002636282921636094    4    4   10    5
 -0.0001919940606773833    4    4   10    6
 8.949625124413292e-05    4    4   10    7
 -0.002858071720468747    4    4   10    8
 0.0007319186414917768    4    4   10    9
 0.2037318335022814    4    4   10   10
 -0.001594059536500994    5    1    1    1
 -3.479846130893176e-06    5    1    2    1
 -0.001420167336675689    5    1    2    2
 0.000125123304870828    5    1    3    1
 2.983606215764156e-06    5    1    3    2
 7.550871436924973e-05    5    1    3    3
 -0.0002240645865844653    5    1    4    1
 4.260778457253047e-05    5    1    4    2
 -1.340101311160773e-05    5    1    4    3
 0.0006084880513049001    5    1    4    4
 9.099822729378435e-05    5    1    5    1
 6.658084402223209e-05    5    1    5    2
 -1.611971436666376e-06    5    1    5    3
 0.000183837594160747    5    1    5    4
 -0.001289088622878657    5    1    5    5
 -6.287254217895916e-05    5    1    6    1
 -1.749608330480844e-05    5    1    6    2
 -2.96031996208065e-06    5    1    6    3
 3.868511491144065e-05    5    1    6    4
 7.613351420520227e-06    5    1    6    5
 -0.001378076789007465    5    1    6    6
 1.586073987060849e-05    5    1    7    1
 9.45977914125651e-06    5    1    7    2
 -3.624455743343058e-06    5    1    7    3
 -1.341878693904489e-05    5    1    7    4
 -2.209149984884331e-05    5    1    7    5
 2.848010747297634e-06    5    1    7    6
 -0.001221291920029773    5    1    7    7
 -9.068522377678774e-06    5    1    8    1
 1.383112822604687e-06    5    1    8    2
 4.294601449467516e-06    5    1    8    3
 -0.0001041871532380535    5    1    8    4
 1.990136253017223e-07    5    1    8    5
 1.628514183270927e-06    5    1    8    6
 -2.366892252267193e-06    5    1    8    7
 0.000941297086066776    5    1    8    8
 8.151666630708334e-06    5    1    9    1
 1.328517060650555e-06    5    1    9    2
 4.54044649678236e-05    5    1    9    3
 -5.161434442381137e-06    5    1    9    4
 5.883645830854495e-06    5    1    9    5
 -3.980891466938738e-06    5    1    9    6
 7.835037862710524e-08    5    1    9    7
 6.16154218919824e-06    5    1    9    8
 0.0005015820745420383    5    1    9    9
 1.462514575226163e-05    5    1   10    1
 8.808764281903888e-07    5    1   10    2
 4.24022781639193e-06    5    1   10    3
 7.783751881861018e-07    5    1   10    4
 1.346078074421146e-05    5    1   10    5
 -2.468780847174323e-06    5    1   10    6
 -5.791937020428291e-07    5    1   10    7
 5.93043878081052e-06    5    1   10    8
 1.386999857105973e-05    5    1   10    9
 0.0006599176745044315    5    1   10   10
 -0.0005299311891861792    5    2    1    1
 -5.007617916443815e-05    5    2    2    1
 0.006230705191457175    5    2    2    2
 3.02728955457161e-05    5    2    3    1
 -1.595240565974241e-05    5    2    3    2
 -5.136223616753566e-05    5    2    3    3
 0.0003164036007606375    5    2    4    1
 -0.0002851764983263938    5    2    4    2
 -4.540445719693836e-05    5    2    4    3
 0.002858070880180385    5    2    4    4
 6.658084402223003e-05    5    2    5    1
 0.004469488762191142    5    2    5    2
 -1.530639164062596e-05    5    2    5    3
 1.400094439743527e-05    5    2    5    4
 0.006431492336192429    5    2    5    5
 -0.0001178549005203789    5    2    6    1
 -3.506612803934981e-05    5    2    6    2
 1.289827397073895e-05    5    2    6    3
 2.848019040859889e-06    5    2    6    4
 1.727370309441822e-05    5    2    6    5
 -0.0005014474521168708    5    2    6    6
 -1.786796798873056e-06    5    2    7    1
 -1.743549882206216e-05    5    2    7    2
 -2.178734410296649e-05    5    2    7    3
 -8.790068855388227e-05    5    2    7    4
 0.0002941651540139288    5    2    7    5
 0.0003218263325903892    5    2    7    6
 0.002832896732600693    5    2    7    7
 5.930443551887404e-06    5    2    8    1
 4.517091581231448e-05    5    2    8    2
 -5.614358656386201e-06    5    2    8    3
 -6.803847342533499e-05    5    2    8    4
 -0.0001334196628590301    5    2    8    5
 7.680020039357978e-06    5    2    8    6
 -8.025247544944655e-06    5    2    8    7
 0.001874997108960762    5    2    8    8
 6.272652728893356e-06    5    2    9    1
 -3.891003065203599e-05    5    2    9    2
 4.342300177428607e-06    5    2    9    3
 9.056902953727132e-06    5    2    9    4
 -5.786643706457697e-07    5    2    9    5
 -6.510752903311815e-07    5    2    9    6
 -2.391427313892223e-06    5    2    9    7
 7.079862736118868e-06    5    2    9    8
 0.0001928374902936277    5    2    9    9
 7.758182594820612e-06    5    2   10    1
 -7.861434430756676e-06    5    2   10    2
 2.960299145460261e-06    5    2   10    3
 1.910998058267875e-05    5    2   10    4
 -2.64163586267266e-05    5    2   10    5
 3.718499048991142e-07    5    2   10    6
 3.49266793150225e-06    5    2   10    7
 -7.029010958631011e-05    5    2   10    8
 -7.273357887077645e-06    5    2   10    9
 0.0005967806351923142    5    2   10   10
 0.0004840349761838946    5    3    1    1
 2.00088169368866e-06    5    3    2    1
 -4.964561472477863e-05    5    3    2    2
 1.438719534954974e-05    5    3    3    1
 -1.327475184961159e-06    5    3    3    2
 -0.0003559946487429758    5    3    3    3
 -2.107293814976824e-05    5    3    4    1
 -7.836501993281395e-06    5    3    4    2
 -1.611968456492396e-06    5    3    4    3
 0.0004840352714839852    5    3    4    4
 -1.611971436666372e-06    5    3    5    1
 -1.530639164062599e-05    5    3    5    2
 4.545963985315683e-06    5    3    5    3
 1.438718834710569e-05    5    3    5    4
 -0.0003559934366737062    5    3    5    5
 -2.130772978163863e-06    5    3    6    1
 3.06110351552281e-06    5    3    6    2
 -8.505794157957937e-06    5    3    6    3
 -1.628520113116568e-06    5    3    6    4
 -4.150497986475614e-06    5    3    6    5
 0.0002379328405816805    5    3    6    6
 -4.405495463436137e-06    5    3    7    1
 -1.823654712417155e-05    5    3    7    2
 2.208084182555571e-06    5    3    7    3
 1.258132472974854e-06    5    3    7    4
 3.528074619750477e-06    5    3    7    5
 -7.680025246221047e-06    5    3    7    6
 0.0001566126308026384    5    3    7    7
 1.628515175943293e-06    5    3    8    1
 -6.048668792449998e-07    5    3    8    2
 4.150498857846419e-06    5    3    8    3
 2.130782076375728e-06    5    3    8    4
 8.505790302343598e-06    5    3    8    5
 -1.669735785744521e-06    5    3    8    6