 &FCI NORB=  10,NELEC=10,MS2=0,
  ORBSYM=1,1,1,1,1,1,1,1,1,1,
  ISYM=1,
 &END
 0.6165665764428727    1    1    1    1
 -0.001733122806508238    1    1    2    1
 0.2021934636355678    1    1    2    2
 0.0002315545915461312    1    1    3    1
 0.0008071834394580493    1    1    3    2
 0.1778434248410854    1    1    3    3
 -0.0007990691851688843    1    1    4    1
 -0.0001566122745118358    1    1    4    2
 -0.0006599183955557798    1    1    4    3
 0.1369754522249968    1    1    4    4
 -0.002823594149733548    1    1    5    1
 0.001221291789289186    1    1    5    2
 0.0007888061784991247    1    1    5    3
 -0.001724484982808088    1    1    5    4
 0.2037318336353807    1    1    5    5
 0.0007046056497363074    1    1    6    1
 0.0001089292259597141    1    1    6    2
 0.0002316797767443653    1    1    6    3
 0.0003970902253053264    1    1    6    4
 -0.0001680828747497045    1    1    6    5
 0.101758551781872    1    1    6    6
 -0.00623070683523496    1    1    7    1
 -0.0004336632333907322    1    1    7    2
 -0.001420167020538615    1    1    7    3
 0.0003277198222398077    1    1    7    4
 0.002431348950420152    1    1    7    5
 -0.0002327051738288271    1    1    7    6
 0.323866594759784    1    1    7    7
 -0.0001188875236261436    1    1    8    1
 -4.912447143610435e-05    1    1    8    2
 1.116933232096946e-05    1    1    8    3
 0.0005967808536853705    1    1    8    4
 -2.15815362345237e-05    1    1    8    5
 -0.0001324633075304293    1    1    8    6
 0.0004180680884709171    1    1    8    7
 0.1059935121500034    1    1    8    8
 0.0002697311719749746    1    1    9    1
 -0.000638727725439246    1    1    9    2
 -0.00158305870731934    1    1    9    3
 0.0001833031055501043    1    1    9    4
 -0.0005015833004961829    1    1    9    5
 -0.0001928382240623441    1    1    9    6
 -4.964555467441216e-05    1    1    9    7
 -0.0004055387698448142    1    1    9    8
 0.1210616866207607    1    1    9    9
 -0.003916552578723597    1    1   10    1
 0.002832894269341846    1    1   10    2
 -0.001712858541075091    1    1   10    3
 0.0002745803749233972    1    1   10    4
 -0.0002651507364381149    1    1   10    5
 -7.308095695245494e-05    1    1   10    6
 -4.626487253467804e-08    1    1   10    7
 -0.0001438707073499175    1    1   10    8
 -0.0001083563205206902    1    1   10    9
 0.3162445528078216    1    1   10   10
 -0.001733122806508241    2    1    1    1
 0.0001182713025617788    2    1    2    1
 -0.002694093826872318    2    1    2    2
 7.334842241942684e-06    2    1    3    1
 -3.041815359194334e-05    2    1    3    2
 -0.001748577553634227    2    1    3    3
 -4.016584820736943e-07    2    1    4    1
 3.528062132818115e-06    2    1    4    2
 4.240244050492836e-06    2    1    4    3
 -0.0005983866189496799    2    1    4    4
 3.353894549926237e-05    2    1    5    1
 -2.209151648712375e-05    2    1    5    2
 -6.285993287668423e-06    2    1    5    3
 2.958410974758229e-05    2    1    5    4
 -0.001325222960414158    2    1    5    5
 -6.091265728705343e-06    2    1    6    1
 -1.097945137235229e-05    2    1    6    2
 -4.034960998361139e-06    2    1    6    3
 -4.060613283241396e-06    2    1    6    4
 5.91182799245451e-07    2    1    6    5
 -0.0003970906415292253    2    1    6    6
 -3.506619234152099e-05    2    1    7    1
 1.352321525668744e-05    2    1    7    2
 1.74960839163873e-05    2    1    7    3
 -7.981444113308802e-06    2    1    7    4
 1.544819095705866e-05    2    1    7    5
 5.536564012529574e-07    2    1    7    6
 -0.001427070614608255    2    1    7    7
 5.499127530896217e-07    2    1    8    1
 1.175636343946217e-06    2    1    8    2
 -1.970063813865536e-06    2    1    8    3
 -2.960297926302856e-06    2    1    8    4
 3.289980036076969e-06    2    1    8    5
 2.196747381106145e-06    2    1    8    6
 -2.175349936480441e-06    2    1    8    7
 -0.0004055389907358746    2    1    8    8
 -6.649967467054542e-06    2    1    9    1
 3.488383782989378e-06    2    1    9    2
 4.901973239530493e-05    2    1    9    3
 -3.012647479813515e-06    2    1    9    4
 6.161550370368868e-06    2    1    9    5
 7.079876980876968e-06    2    1    9    6
 -3.06110469825259e-06    2    1    9    7
 5.148646199301803e-06    2    1    9    8
 -0.0006377308978766671    2    1    9    9
 0.0001862040542433056    2    1   10    1
 -0.0002941652421568511    2    1   10    2
 5.145434758734824e-05    2    1   10    3
 -7.843756461595684e-06    2    1   10    4
 1.364235880868354e-05    2    1   10    5
 -5.299951541224272e-07    2    1   10    6
 -4.736047209626797e-05    2    1   10    7
 3.304239490220962e-06    2    1   10    8
 -6.957035282609059e-06    2    1   10    9
 4.633887309372153e-08    2    1   10   10
 0.2021934636355678    2    2    1    1
 -0.002694093826872333    2    2    2    1
 0.6190442940145311    2    2    2    2
 -0.0002538523328030925    2    2    3    1
 -0.003590211259645881    2    2    3    2
 0.3192094040359702    2    2    3    3
 0.000128036552056205    2    2    4    1
 0.0003559961012251109    2    2    4    2
 -7.551155908659853e-05    2    2    4    3
 0.136004653153963    2    2    4    4
 -0.001339737295170815    2    2    5    1
 0.001289093342020732    2    2    5    2
 -0.002377305263179167    2    2    5    3
 -0.001748428514217328    2    2    5    4
 0.2019267151876919    2    2    5    5
 4.585402901647549e-05    2    2    6    1
 0.001177459251643105    2    2    6    2
 -0.0003165623322915522    2    2    6    3
 0.0005983866095800196    2    2    6    4
 0.0001875202993383202    2    2    6    5
 0.1369754523803535    2    2    6    6
 0.0005014473171155286    2    2    7    1
 -6.890723021985641e-05    2    2    7    2
 -0.00137807686010113    2    2    7    3
 0.0007785071363053807    2    2    7    4
 -0.0007927111532302269    2    2    7    5
 2.94435683485896e-05    2    2    7    6
 0.1765723511161326    2    2    7    7
 3.63036798815862e-05    2    2    8    1
 -0.0002898527185507398    2    2    8    2
 0.0004248417357428295    2    2    8    3
 -5.136214178236634e-05    2    2    8    4
 -0.0005485553260475887    2    2    8    5
 -0.0001205501908562358    2    2    8    6
 7.771922381957655e-06    2    2    8    7
 0.1210616867326401    2    2    8    8
 0.0002500355376896928    2    2    9    1
 0.001056474127753046    2    2    9    2
 -0.002217662283815397    2    2    9    3
 0.0002093438377462904    2    2    9    4
 -0.0009412969687802759    2    2    9    5
 -0.001874999585969744    2    2    9    6
 0.0002379328333444071    2    2    9    7
 -0.0006377295831793356    2    2    9    8
 0.2012056804441524    2    2    9    9
 -0.002602100207359612    2    2   10    1
 0.006431498333860444    2    2   10    2
 0.0001338874649483629    2    2   10    3
 0.0001799593254602381    2    2   10    4
 -0.0005682013362713358    2    2   10    5
 7.769229906190645e-05    2    2   10    6
 0.001427070840350341    2    2   10    7
 -0.0001698526677358027    2    2   10    8
 0.0003639352608964159    2    2   10    9
 0.3238665948710241    2    2   10   10
 0.0002315545915461305    3    1    1    1
 7.334842241942562e-06    3    1    2    1
 -0.0002538523328030927    3    1    2    2
 1.515157040715708e-05    3    1    3    1
 -4.69082038188999e-05    3    1    3    2
 0.0005275598422806109    3    1    3    3
 -4.739700733532048e-06    3    1    4    1
 1.25812775579215e-06    3    1    4    2
 1.462515595930921e-05    3    1    4    3
 -0.0001875178701999808    3    1    4    4
 6.116655072484265e-06    3    1    5    1
 -1.341880952043145e-05    3    1    5    2
 -5.491042328782047e-05    3    1    5    3
 1.609623421786465e-05    3    1    5    4
 -0.000518986208155193    3    1    5    5
 -6.77449087913802e-09    3    1    6    1
 -1.74400703281897e-06    3    1    6    2
 -2.124869874737139e-06    3    1    6    3
 5.912209236562067e-07    3    1    6    4
 3.23841661192245e-06    3    1    6    5
 0.0001680866061045472    3    1    6    6
 -5.007610774594549e-05    3    1    7    1
 6.090264320067693e-06    3    1    7    2
 3.479855309357822e-06    3    1    7    3
 -4.939055313922891e-06    3    1    7    4
 7.513304049696531e-05    3    1    7    5
 -7.791083490175492e-08    3    1    7    6
 -0.0005682032465923938    3    1    7    7
 -2.769170490333274e-07    3    1    8    1
 6.636432185569047e-07    3    1    8    2
 1.078825077252587e-06    3    1    8    3
 -7.758192711962545e-06    3    1    8    4
 -3.619558636920596e-06    3    1    8    5
 -4.906483261791053e-08    3    1    8    6
 -3.033016440393359e-07    3    1    8    7
 1.116795774750195e-05    3    1    8    8
 -2.820974496336976e-06    3    1    9    1
 7.567106567176167e-06    3    1    9    2
 4.036451185587632e-05    3    1    9    3
 -7.741069577211806e-07    3    1    9    4
 5.161444807061469e-06    3    1    9    5
 -9.05695064029534e-06    3    1    9    6
 -2.000880105050518e-06    3    1    9    7
 -1.970030887674686e-06    3    1    9    8
 0.0004248378978607406    3    1    9    9
 -2.806715371189126e-05    3    1   10    1
 8.79006935500611e-05    3    1   10    2
 6.399246109553054e-06    3    1   10    3
 -1.826078271792881e-06    3    1   10    4
 6.777507273253486e-06    3    1   10    5
 -1.49284510907809e-07    3    1   10    6
 -1.364235378086685e-05    3    1   10    7
 -1.042978329937924e-07    3    1   10    8
 -2.784424809519277e-06    3    1   10    9
 -0.0002651526679124887    3    1   10   10
 0.0008071834394580571    3    2    1    1
 -3.041815359194479e-05    3    2    2    1
 -0.003590211259645853    3    2    2    2
 -4.690820381889974e-05    3    2    3    1
 0.003884269302737693    3    2    3    2
 -0.00429879047520537    3    2    3    3
 1.059620668979734e-05    3    2    4    1
 -1.438726682899865e-05    3    2    4    2
 -0.0001251232470515795    3    2    4    3
 -0.001748428835245728    3    2    4    4
 -1.992015837961284e-05    3    2    5    1
 -0.0001838379177447485    3    2    5    2
 -5.002246558772505e-05    3    2    5    3
 -8.733943461248134e-05    3    2    5    4
 -0.002380308941004581    3    2    5    5
 -1.742310026356597e-06    3    2    6    1
 -4.909258829863189e-05    3    2    6    2
 -0.0001235914431133402    3    2    6    3
 -2.958411473149756e-05    3    2    6    4
 -1.609623825370436e-05    3    2    6    5
 -0.00172448541496556    3    2    6    6
 0.0001178548946705218    3    2    7    1
 -2.923177527992402e-05    3    2    7    2
 -6.287252031055388e-05    3    2    7    3
 5.175753830266762e-06    3    2    7    4
 -0.0002955438989788517    3    2    7    5
 -6.981413216555964e-06    3    2    7    6
 0.0007927106164418512    3    2    7    7
 -4.292906027361583e-07    3    2    8    1
 2.3030237091667e-05    3    2    8    2
 4.036443274860212e-05    3    2    8    3
 3.02728925405051e-05    3    2    8    4
 3.745691811782177e-05    3    2    8    5
 3.866328089732046e-05    3    2    8    6
 8.640160675480786e-06    3    2    8    7
 -0.001583060814031613    3    2    8    8
 1.294761871402771e-05    3    2    9    1
 -0.0001812354121842816    3    2    9    2
 -0.0001057072210059982    3    2    9    3
 -1.882427188478857e-05    3    2    9    4
 -0.0001041871369678749    3    2    9    5
 -6.803848545554829e-05    3    2    9    6
 -2.130762501010154e-06    3    2    9    7
 4.901976523651702e-05    3    2    9    8
 -0.002217666778860779    3    2    9    9
 0.000306399042798339    3    2   10    1
 1.400089966609739e-05    3    2   10    2
 0.0001755630786595993    3    2   10    3
 1.300737969236703e-05    3    2   10    4
 -7.513307695023082e-05    3    2   10    5
 -7.028101844926941e-06    3    2   10    6
 1.544819990748891e-05    3    2   10    7
 6.855784582549985e-06    3    2   10    8
 3.532053351574876e-05    3    2   10    9
 -0.002431344142488355    3    2   10   10
 0.1778434248410854    3    3    1    1
 -0.001748577553634225    3    3    2    1
 0.3192094040359703    3    3    2    2
 0.0005275598422806102    3    3    3    1
 -0.0042987904752054    3    3    3    2
 0.6312943676598759    3    3    3    3
 0.0001663677495268583    3    3    4    1
 -0.0004840345649882922    3    3    4    2
 0.001594053020087    3    3    4    3
 0.2019267144607257    3    3    4    4
 -0.001426770652263916    3    3    5    1
 -0.0006084878507076432    3    3    5    2
 -0.005200726252083444    3    3    5    3
 -0.0023803086500719    3    3    5    4
 0.3218924545446855    3    3    5    5
 8.949624541313881e-05    3    3    6    1
 -0.0002636287788985137    3    3    6    2
 0.00112504469031527    3    3    6    3
 0.001325222934990889    3    3    6    4
 0.0005189903440611383    3    3    6    5
 0.2037318341418726    3    3    6    6
 0.0005299314064017464    3    3    7    1
 -0.00061838878550882    3    3    7    2
 -0.001594059423174056    3    3    7    3
 0.00113089962776407    3    3    7    4
 0.002380304933064214    3    3    7    5
 0.0001919940506703843    3    3    7    6
 0.2019267143737796    3    3    7    7
 3.035674042260866e-05    3    3    8    1
 0.0002245695053751629    3    3    8    2
 0.0005275686514802258    3    3    8    3
 -0.0005299310268192005    3    3    8    4
 -0.00142677103579076    3    3    8    5
 -0.0007319188903295096    3    3    8    6
 -0.0001663677485002942    3    3    8    7
 0.1778434247011076    3    3    8    8
 0.0002245703947497038    3    3    9    1
 -0.001021977028830245    3    3    9    2
 -0.004298779048845614    3    3    9    3
 0.0006183895695845857    3    3    9    4
 -0.0006084879106902745    3    3    9    5
 -0.002858075150208465    3    3    9    6
 0.0004840347971650067    3    3    9    7
 -0.001748575232732585    3    3    9    8
 0.3192094038534499    3    3    9    9
 0.000731918465222841    3    3   10    1
 0.002858073245424558    3    3   10    2
 -0.0011250457967512    3    3   10    3
 0.0001919940811661329    3    3   10    4
 -0.000518987655202763    3    3   10    5
 -3.032268104905923e-05    3    3   10    6
 0.001325223028612022    3    3   10    7
 -8.94963231188625e-05    3    3   10    8
 0.0002636282453303114    3    3   10    9
 0.2037318339426184    3    3   10   10
 -0.0007990691851688825    4    1    1    1
 -4.016584820736638e-07    4    1    2    1
 0.0001280365520562042    4    1    2    2
 -4.739700733532096e-06    4    1    3    1
 1.059620668979825e-05    4    1    3    2
 0.0001663677495268544    4    1    3    3
 1.132330813456227e-05    4    1    4    1
 -2.208078051619307e-06    4    1    4    2
 -1.346079153699415e-05    4    1    4    3
 -0.001177460389253125    4    1    4    4
 4.981675661611489e-06    4    1    5    1
 3.624453072990285e-06    4    1    5    2
 4.992062719793771e-06    4    1    5    3
 4.909262934920728e-05    4    1    5    4
 0.0002636284656947062    4    1    5    5
 -2.0812051335206e-06    4    1    6    1
 1.413827597857555e-07    4    1    6    2
 -1.285436902519877e-06    4    1    6    3
 -1.097944330759245e-05    4    1    6    4
 -1.743993119145937e-06    4    1    6    5
 -0.0001089293663114422    4    1    6    6
 4.517099920309363e-05    4    1    7    1
 -1.471804618292855e-06    4    1    7    2
 -1.383106528297211e-06    4    1    7    3
 2.401748211080271e-06    4    1    7    4
 -3.532052657712441e-05    4    1    7    5
 1.220957427421975e-07    4    1    7    6
 0.0003639348733065071    4    1    7    7
 9.066562565680771e-07    4    1    8    1
 -2.700453008099346e-07    4    1    8    2
 3.033130021489347e-07    4    1    8    3
 -2.641635361458999e-05    4    1    8    4
 4.49324569809995e-06    4    1    8    5
 -1.047186867823791e-05    4    1    8    6
 -1.948499708300908e-07    4    1    8    7
 -0.0004180683996317953    4    1    8    8
 2.994282653661312e-07    4    1    9    1
 -1.178230084728247e-06    4    1    9    2
 -8.640160193921081e-06    4    1    9    3
 -6.160954378812935e-07    4    1    9    4
 -3.980886718651265e-06    4    1    9    5
 -6.510763640067867e-07    4    1    9    6
 6.048689247455946e-07    4    1    9    7
 2.175357920317051e-06    4    1    9    8
 -7.771999101165272e-06    4    1    9    9
 3.378013414378255e-05    4    1   10    1
 -2.178734498743439e-05    4    1   10    2
 -1.258285604918108e-06    4    1   10    3
 2.320192985267754e-06    4    1   10    4
 -2.784428974028684e-06    4    1   10    5
 2.006709756174296e-07    4    1   10    6
 6.957035167083861e-06    4    1   10    7
 8.247943466822168e-07    4    1   10    8
 1.607399802274345e-06    4    1   10    9
 -0.0001083566998823484    4    1   10   10
 -0.000156612274511835    4    2    1    1
 3.528062132818279e-06    4    2    2    1
 0.0003559961012251095    4    2    2    2
 1.258127755792164e-06    4    2    3    1
 -1.438726682899897e-05    4    2    3    2
 -0.0004840345649882901    4    2    3    3
 -2.208078051619352e-06    4    2    4    1
 4.545964941451752e-06    4    2    4    2
 -1.611960656340447e-06    4    2    4    3
 0.0003559921881290759    4    2    4    4
 4.405485339661556e-06    4    2    5    1
 -1.611948222956666e-06    4    2    5    2
 -2.107294437648624e-05    4    2    5    3
 -1.43872427755283e-05    4    2    5    4
 -0.0004840354967975184    4    2    5    5
 -2.43545459010826e-07    4    2    6    1
 2.208087382641875e-06    4    2    6    2
 -4.405501654740691e-06    4    2    6    3
 -3.528081824784167e-06    4    2    6    4
 -1.258140320328647e-06    4    2    6    5
 -0.0001566127864589168    4    2    6    6
 -7.680017066194128e-06    4    2    7    1
 4.1505092864597e-06    4    2    7    2
 1.628508416905961e-06    4    2    7    3
 -8.505791927518583e-06    4    2    7    4
 -2.130770542778175e-06    4    2    7    5
 -5.554985944457104e-07    4    2    7    6
 -0.0002379329161248674    4    2    7    7
 -1.657733917709386e-07    4    2    8    1
 -1.327478783514438e-06    4    2    8    2
 2.000871402175529e-06    4    2    8    3
 1.530639865932635e-05    4    2    8    4
 7.836495088584842e-06    4    2    8    5
 1.82365441771438e-05    4    2    8    6
 6.048692416838361e-07    4    2    8    7
 4.964511882113928e-05    4    2    8    8
 -5.554970633666787e-07    4    2    9    1
 8.5057993399373e-06    4    2    9    2
 2.130749706906034e-06    4    2    9    3
 -4.150494016786789e-06    4    2    9    4
 -1.628523258505118e-06    4    2    9    5
 -7.680031750555324e-06    4    2    9    6
 -1.669735470688411e-06    4    2    9    7
 3.061101858431008e-06    4    2    9    8
 -0.0002379327723376363    4    2    9    9
 -1.823656801429721e-05    4    2   10    1
 1.530642291521905e-05    4    2   10    2
 7.836507605837066e-06    4    2   10    3
 -1.327472484601996e-06    4    2   10    4
 2.000880342263553e-06    4    2   10    5
 1.657745876034481e-07    4    2   10    6
 -3.061099070956801e-06    4    2   10    7
 -1.33304700391721e-07    4    2   10    8
 -6.048651662370771e-07    4    2   10    9
 4.964675090255731e-05    4    2   10   10
 -0.0006599183955557816    4    3    1    1
 4.240244050492462e-06    4    3    2    1
 -7.551155908659229e-05    4    3    2    2
 1.462515595930907e-05    4    3    3    1
 -0.0001251232470515789    4    3    3    2
 0.001594053020086995    4    3    3    3
 -1.346079153699398e-05    4    3    4    1
 -1.611960656340478e-06    4    3    4    2
 9.09981858579067e-05    4    3    4    3
 0.001289094172997907    4    3    4    4
 -7.783442860721405e-07    4    3    5    1
 -1.34010062133619e-05    4    3    5    2
 -0.0002240646605520741    4    3    5    3
 -0.0001838373494608372    4    3    5    4
 -0.0006084885218827242    4    3    5    5
 5.791942799291058e-07    4    3    6    1
 -3.624453229523273e-06    4    3    6    2
 1.586074390720662e-05    4    3    6    3
 2.209150859879355e-05    4    3    6    4
 1.341874651410814e-05    4    3    6    5
 0.001221291892310886    4    3    6    6
 -5.930476734865322e-06    4    3    7    1
 4.294621121051813e-06    4    3    7    2
 -9.068457291907969e-06    4    3    7    3
 -1.990282015398734e-07    4    3    7    4
 0.0001041871398992241    4    3    7    5
 2.366888778607296e-06    4    3    7    6
 -0.0009412973574870056    4    3    7    7
 -8.808755778992201e-07    4    3    8    1
 2.983610354593387e-06    4    3    8    2
 -3.479865530823172e-06    4    3    8    3
 -6.658086582683326e-05    4    3    8    4
 -4.260774584764599e-05    4    3    8    5
 -9.459749501463774e-06    4    3    8    6
 -1.383105195406703e-06    4    3    8    7
 0.001420169091563235    4    3    8    8
 -2.468782024744314e-06    4    3    9    1
 2.960320030051646e-06    4    3    9    2
 6.287263082993254e-05    4    3    9    3
 7.613353939955246e-06    4    3    9    4
 3.868515748601818e-05    4    3    9    5
 2.848077366553035e-06    4    3    9    6
 1.628505898763897e-06    4    3    9    7
 -1.749607907086158e-05    4    3    9    8
 0.001378074777043051    4    3    9    9
 -1.38700096427436e-05    4    3   10    1
 4.540442209656901e-05    4    3   10    2
 8.151658401751932e-06    4    3   10    3
 -5.88364898680981e-06    4    3   10    4
 5.161451657870777e-06    4    3   10    5
 -7.834961140858056e-08    4    3   10    6
 -6.161557048494412e-06    4    3   10    7
 -1.328515525572542e-06    4    3   10    8
 -3.980892939716804e-06    4    3   10    9
 -0.0005015833957375805    4    3   10   10
 0.1369754522249968    4    4    1    1
 -0.0005983866189496799    4    4    2    1
 0.1360046531539629    4    4    2    2
 -0.0001875178701999803    4    4    3    1
 -0.001748428835245727    4    4    3    2
 0.2019267144607257    4    4    3    3
 -0.001177460389253127    4    4    4    1
 0.0003559921881290755    4    4    4    2
 0.001289094172997905    4    4    4    3
 0.6190442943438027    4    4    4    4
 0.0003165636085910623    4    4    5    1
 -7.55105819132278e-05    4    4    5    2
 -0.00237728711084086    4    4    5    3
 -0.003590212915676464    4    4    5    4
 0.3192094049113542    4    4    5    5
 4.585417379297178e-05    4    4    6    1
 -0.0001280363953022542    4    4    6    2
 0.001339737127599315    4    4    6    3
 0.002694089663410126    4    4    6    4
 0.0002538563396315262    4    4    6    5
 0.2021934636762396    4    4    6    6
 -0.001874996718760088    4    4    7    1
 -0.0002093453486963744    4    4    7    2
 0.0009412973349941988    4    4    7    3
 -0.001056478122615476    4    4    7    4
 0.002217662327082991    4    4    7    5
 0.0002500355798617127    4    4    7    6
 0.201205680578907    4    4    7    7
 -7.769232112411794e-05    4    4    8    1
 0.0001799604369286966    4    4    8    2
 -0.000568205426347401    4    4    8    3
 0.006431494552701884    4    4    8    4
 0.0001338873393773882    4    4    8    5
 0.002602100290684833    4    4    8    6
 -0.000363934812875266    4    4    8    7
 0.3238665947341939    4    4    8    8
 2.944355348655446e-05    4    4    9    1
 -0.0007785067576892254    4    4    9    2
 0.0007927115917131106    4    4    9    3
 6.891783124427214e-05    4    4    9    4
 0.001378074223137222    4    4    9    5
 0.0005014485080482613    4    4    9    6
 0.000237932853209484    4    4    9    7
 -0.001427073033543312    4    4    9    8
 0.1765723512011438    4    4    9    9
 0.000120550137970259    4    4   10    1
 -5.136193043762428e-05    4    4   10    2
 -0.0005485558168899529    4    4   10    3
 -0.0002898493250852013    4    4   10    4
 0.0004248351848947071    4    4   10    5
 -3.630366090823979e-05    4    4   10    6
 0.0006377308536226747    4    4   10    7
 -0.0001698521950659413    4    4   10    8
 -7.772183692256374e-06    4    4   10    9
 0.1210616867316566    4    4   10   10
 -0.00282359414973355    5    1    1    1
 3.353894549926183e-05    5    1    2    1
 -0.001339737295170811    5    1    2    2
 6.116655072484494e-06    5    1    3    1
 -1.99201583796145e-05    5    1    3    2
 -0.001426770652263909    5    1    3    3
 4.981675661611521e-06    5    1    4    1
 4.40548533966138e-06    5    1    4    2
 -7.783442860713995e-07    5    1    4    3
 0.0003165636085910615    5    1    4    4
 0.0001182417858568501    5    1    5    1
 -1.586074191995449e-05    5    1    5    2
 -7.993155344764443e-05    5    1    5    3
 0.000123591409251165    5    1    5    4
 -0.001125041715560406    5    1    5    5
 -1.058492179130322e-05    5    1    6    1
 -1.285438143048952e-06    5    1    6    2
 -1.6713472516889e-06    5    1    6    3
 -4.034950575075007e-06    5    1    6    4
 -2.124903549975462e-06    5    1    6    5
 -0.0002316792188294963    5    1    6    6
 0.0002851767226442454    5    1    7    1
 1.555536429449603e-05    5    1    7    2
 4.260777228832156e-05    5    1    7    3
 -1.831137295127472e-05    5    1    7    4
 -0.000175562940525365    5    1    7    5
 1.636590356495932e-06    5    1    7    6
 0.0001338872860778431    5    1    7    7
 1.091769238037166e-06    5    1    8    1
 2.615916246182191e-07    5    1    8    2
 -3.619584592009791e-06    5    1    8    3
 1.910997511815393e-05    5    1    8    4
 2.275980286899612e-05    5    1    8    5
 5.200405543565466e-06    5    1    8    6
 -4.49324761619116e-06    5    1    8    7
 -2.158140354533513e-05    5    1    8    8
 -9.377312074084224e-06    5    1    9    1
 7.356404473548492e-06    5    1    9    2
 3.745688619257713e-05    5    1    9    3
 -4.879811410097177e-06    5    1    9    4
 8.151668591897902e-06    5    1    9    5
 6.272673388497805e-06    5    1    9    6
 -7.836495676811095e-06    5    1    9    7
 3.289970083736459e-06    5    1    9    8
 -0.0005485551098903258    5    1    9    9
 -2.193204901302055e-05    5    1   10    1
 -1.786811339858917e-06    5    1   10    2
 2.166472119910422e-05    5    1   10    3
 -3.308237959916284e-06    5    1   10    4
 6.399238114998738e-06    5    1   10    5
 4.881069183064505e-07    5    1   10    6
 -5.145433506531406e-05    5    1   10    7
 2.075025961423755e-06    5    1   10    8
 -1.258283955542103e-06    5    1   10    9
 -0.001712860004868458    5    1   10   10
 0.001221291789289185    5    2    1    1
 -2.209151648712419e-05    5    2    2    1
 0.001289093342020735    5    2    2    2
 -1.341880952043141e-05    5    2    3    1
 -0.0001838379177447467    5    2    3    2
 -0.0006084878507076426    5    2    3    3
 3.624453072990349e-06    5    2    4    1
 -1.61194822295647e-06    5    2    4    2
 -1.340100621336239e-05    5    2    4    3
 -7.551058191323e-05    5    2    4    4
 -1.58607419199548e-05    5    2    5    1
 9.099824732966701e-05    5    2    5    2
 -0.0002240643592656076    5    2    5    3
 -0.0001251232640713542    5    2    5    4
 0.001594055061144948    5    2    5    5
 5.791915088513261e-07    5    2    6    1
 1.346079257290018e-05    5    2    6    2
 7.78362453647888e-07    5    2    6    3
 -4.240246498218952e-06    5    2    6    4
 -1.462507627853892e-05    5    2    6    5
 -0.0006599180307290205    5    2    6    6
 2.848042010719621e-06    5    2    7    1
 -7.613348278151275e-06    5    2    7    2
 -3.868511561920789e-05    5    2    7    3
 -2.960304399079194e-06    5    2    7    4
 -6.287264162326582e-05    5    2    7    5
 -2.46877998075597e-06    5    2    7    6
 0.001378075139376632    5    2    7    7
 7.834973255211486e-08    5    2    8    1
 -5.883668422546045e-06    5    2    8    2
 5.161439057236125e-06    5    2    8    3
 4.540442149002647e-05    5    2    8    4
 8.151662104527314e-06    5    2    8    5
 1.387000441958774e-05    5    2    8    6
 3.980880730506739e-06    5    2    8    7
 -0.0005015828689333979    5    2    8    8
 2.366885587297885e-06    5    2    9    1
 1.990319222311378e-07    5    2    9    2
 -0.0001041871235848393    5    2    9    3
 -4.29459565266121e-06    5    2    9    4
 9.068449568526885e-06    5    2    9    5
 -5.930450446693596e-06    5    2    9    6
 1.628519210538304e-06    5    2    9    7
 6.161537997181931e-06    5    2    9    8
 -0.0009412969494003689    5    2    9    9
 9.45972143348361e-06    5    2   10    1
 -6.658074758554115e-05    5    2   10    2
 -4.260776895806334e-05    5    2   10    3
 2.983603410574122e-06    5    2   10    4
 -3.479847057141702e-06    5    2   10    5
 8.808768453326888e-07    5    2   10    6
 1.749607777911613e-05    5    2   10    7
 -1.328522831974908e-06    5    2   10    8
 1.383107137697607e-06    5    2   10    9
 0.001420169090209465    5    2   10   10
 0.0007888061784991277    5    3    1    1
 -6.285993287667268e-06    5    3    2    1
 -0.002377305263179199    5    3    2    2
 -5.491042328782009e-05    5    3    3    1
 -5.002246558772104e-05    5    3    3    2
 -0.00520072625208344    5    3    3    3
 4.992062719793423e-06    5    3    4    1
 -2.10729443764865e-05    5    3    4    2
 -0.0002240646605520721    5    3    4    3
 -0.002377287110840813    5    3    4    4
 -7.993155344764301e-05    5    3    5    1
 -0.0002240643592656074    5    3    5    2
 0.004146814687135823    5    3    5    3
 -5.002273697360144e-05    5    3    5    4
 -0.005200679506450884    5    3    5    5
 2.077316974766284e-06    5    3    6    1
 -4.992043208023149e-06    5    3    6    2
 7.993172315395175e-05    5    3    6    3
 6.286076041257025e-06    5    3    6    4
 5.491007649970588e-05    5    3    6    5
 0.0007888020878242903    5    3    6    6
 0.0003164033256322314    5    3    7    1
 -7.013475213952449e-05    5    3    7    2
 0.0002240645810720288    5    3    7    3
 0.0001053272600646718    5    3    7    4
 5.002281934065396e-05    5    3    7    5
 7.79091579586656e-06    5    3    7    6
 -0.002377287132397521    5    3    7    7
 -1.206145263293658e-06    5    3    8    1
 7.79093297021038e-06    5    3    8    2
 -5.491055735225028e-05    5    3    8    3
 -0.0003164033668174676    5    3    8    4
 -7.993147695615276e-05    5    3    8    5
 -0.0001248977363933684    5    3    8    6