[Molden Format]
made by pyscf v[2.6.2]
[Atoms] (AU)
H   1   1     2.33763765856000     4.69310123508400     0.00000000000000
H   2   1    -2.33763765856000    -4.69310123508400     0.00000000000000
H   3   1    -2.33763765856000     4.69310123508400     0.00000000000000
H   4   1     2.33763765856000    -4.69310123508400     0.00000000000000
H   5   1     6.36492454504300     2.34982418841500     0.00000000000000
H   6   1    -6.36492454504300    -2.34982418841500     0.00000000000000
H   7   1    -6.36492454504300     2.34982418841500     0.00000000000000
H   8   1     6.36492454504300    -2.34982418841500     0.00000000000000
C   9   6     0.00000000000000     1.34347620379600     0.00000000000000
C   10   6     0.00000000000000    -1.34347620379600     0.00000000000000
C   11   6     2.34629842880300     2.63976101399600     0.00000000000000
C   12   6    -2.34629842880300    -2.63976101399600     0.00000000000000
C   13   6    -2.34629842880300     2.63976101399600     0.00000000000000
C   14   6     2.34629842880300    -2.63976101399600     0.00000000000000
C   15   6     4.58120036880600     1.33647725770700     0.00000000000000
C   16   6    -4.58120036880600    -1.33647725770700     0.00000000000000
C   17   6    -4.58120036880600     1.33647725770700     0.00000000000000
C   18   6     4.58120036880600    -1.33647725770700     0.00000000000000
[GTO]
1 0
 s    3 1.00
             18.731137    0.03349459952309
             2.8253937    0.23472694665786
             0.6401217    0.81375731841339
 s    1 1.00
             0.1612778                   1

2 0
 s    3 1.00
             18.731137    0.03349459952309
             2.8253937    0.23472694665786
             0.6401217    0.81375731841339
 s    1 1.00
             0.1612778                   1

3 0
 s    3 1.00
             18.731137    0.03349459952309
             2.8253937    0.23472694665786
             0.6401217    0.81375731841339
 s    1 1.00
             0.1612778                   1

4 0
 s    3 1.00
             18.731137    0.03349459952309
             2.8253937    0.23472694665786
             0.6401217    0.81375731841339
 s    1 1.00
             0.1612778                   1

5 0
 s    3 1.00
             18.731137    0.03349459952309
             2.8253937    0.23472694665786
             0.6401217    0.81375731841339
 s    1 1.00
             0.1612778                   1

6 0
 s    3 1.00
             18.731137    0.03349459952309
             2.8253937    0.23472694665786
             0.6401217    0.81375731841339
 s    1 1.00
             0.1612778                   1

7 0
 s    3 1.00
             18.731137    0.03349459952309
             2.8253937    0.23472694665786
             0.6401217    0.81375731841339
 s    1 1.00
             0.1612778                   1

8 0
 s    3 1.00
             18.731137    0.03349459952309
             2.8253937    0.23472694665786
             0.6401217    0.81375731841339
 s    1 1.00
             0.1612778                   1

9 0
 s    6 1.00
             3047.5249  0.0018347001629433
             457.36951    0.01403730124668
             103.94869   0.068842606114048
             29.210155    0.23218442062076
              9.286663    0.46794134155879
              3.163927    0.36231203217765
 s    3 1.00
             7.8682724   -0.11933240861517
             1.8812885   -0.16085421161283
             0.5442493     1.1434564825515
 s    1 1.00
             0.1687144                   1
 p    3 1.00
             7.8682724   0.068999095584993
             1.8812885    0.31642397975315
             0.5442493    0.74430825237435
 p    1 1.00
             0.1687144                   1

10 0
 s    6 1.00
             3047.5249  0.0018347001629433
             457.36951    0.01403730124668
             103.94869   0.068842606114048
             29.210155    0.23218442062076
              9.286663    0.46794134155879
              3.163927    0.36231203217765
 s    3 1.00
             7.8682724   -0.11933240861517
             1.8812885   -0.16085421161283
             0.5442493     1.1434564825515
 s    1 1.00
             0.1687144                   1
 p    3 1.00
             7.8682724   0.068999095584993
             1.8812885    0.31642397975315
             0.5442493    0.74430825237435
 p    1 1.00
             0.1687144                   1

11 0
 s    6 1.00
             3047.5249  0.0018347001629433
             457.36951    0.01403730124668
             103.94869   0.068842606114048
             29.210155    0.23218442062076
              9.286663    0.46794134155879
              3.163927    0.36231203217765
 s    3 1.00
             7.8682724   -0.11933240861517
             1.8812885   -0.16085421161283
             0.5442493     1.1434564825515
 s    1 1.00
             0.1687144                   1
 p    3 1.00
             7.8682724   0.068999095584993
             1.8812885    0.31642397975315
             0.5442493    0.74430825237435
 p    1 1.00
             0.1687144                   1

12 0
 s    6 1.00
             3047.5249  0.0018347001629433
             457.36951    0.01403730124668
             103.94869   0.068842606114048
             29.210155    0.23218442062076
              9.286663    0.46794134155879
              3.163927    0.36231203217765
 s    3 1.00
             7.8682724   -0.11933240861517
             1.8812885   -0.16085421161283
             0.5442493     1.1434564825515
 s    1 1.00
             0.1687144                   1
 p    3 1.00
             7.8682724   0.068999095584993
             1.8812885    0.31642397975315
             0.5442493    0.74430825237435
 p    1 1.00
             0.1687144                   1

13 0
 s    6 1.00
             3047.5249  0.0018347001629433
             457.36951    0.01403730124668
             103.94869   0.068842606114048
             29.210155    0.23218442062076
              9.286663    0.46794134155879
              3.163927    0.36231203217765
 s    3 1.00
             7.8682724   -0.11933240861517
             1.8812885   -0.16085421161283
             0.5442493     1.1434564825515
 s    1 1.00
             0.1687144                   1
 p    3 1.00
             7.8682724   0.068999095584993
             1.8812885    0.31642397975315
             0.5442493    0.74430825237435
 p    1 1.00
             0.1687144                   1

14 0
 s    6 1.00
             3047.5249  0.0018347001629433
             457.36951    0.01403730124668
             103.94869   0.068842606114048
             29.210155    0.23218442062076
              9.286663    0.46794134155879
              3.163927    0.36231203217765
 s    3 1.00
             7.8682724   -0.11933240861517
             1.8812885   -0.16085421161283
             0.5442493     1.1434564825515
 s    1 1.00
             0.1687144                   1
 p    3 1.00
             7.8682724   0.068999095584993
             1.8812885    0.31642397975315
             0.5442493    0.74430825237435
 p    1 1.00
             0.1687144                   1

15 0
 s    6 1.00
             3047.5249  0.0018347001629433
             457.36951    0.01403730124668
             103.94869   0.068842606114048
             29.210155    0.23218442062076
              9.286663    0.46794134155879
              3.163927    0.36231203217765
 s    3 1.00
             7.8682724   -0.11933240861517
             1.8812885   -0.16085421161283
             0.5442493     1.1434564825515
 s    1 1.00
             0.1687144                   1
 p    3 1.00
             7.8682724   0.068999095584993
             1.8812885    0.31642397975315
             0.5442493    0.74430825237435
 p    1 1.00
             0.1687144                   1

16 0
 s    6 1.00
             3047.5249  0.0018347001629433
             457.36951    0.01403730124668
             103.94869   0.068842606114048
             29.210155    0.23218442062076
              9.286663    0.46794134155879
              3.163927    0.36231203217765
 s    3 1.00
             7.8682724   -0.11933240861517
             1.8812885   -0.16085421161283
             0.5442493     1.1434564825515
 s    1 1.00
             0.1687144                   1
 p    3 1.00
             7.8682724   0.068999095584993
             1.8812885    0.31642397975315
             0.5442493    0.74430825237435
 p    1 1.00
             0.1687144                   1

17 0
 s    6 1.00
             3047.5249  0.0018347001629433
             457.36951    0.01403730124668
             103.94869   0.068842606114048
             29.210155    0.23218442062076
              9.286663    0.46794134155879
              3.163927    0.36231203217765
 s    3 1.00
             7.8682724   -0.11933240861517
             1.8812885   -0.16085421161283
             0.5442493     1.1434564825515
 s    1 1.00
             0.1687144                   1
 p    3 1.00
             7.8682724   0.068999095584993
             1.8812885    0.31642397975315
             0.5442493    0.74430825237435
 p    1 1.00
             0.1687144                   1

18 0
 s    6 1.00
             3047.5249  0.0018347001629433
             457.36951    0.01403730124668
             103.94869   0.068842606114048
             29.210155    0.23218442062076
              9.286663    0.46794134155879
              3.163927    0.36231203217765
 s    3 1.00
             7.8682724   -0.11933240861517
             1.8812885   -0.16085421161283
             0.5442493     1.1434564825515
 s    1 1.00
             0.1687144                   1
 p    3 1.00
             7.8682724   0.068999095584993
             1.8812885    0.31642397975315
             0.5442493    0.74430825237435
 p    1 1.00
             0.1687144                   1

[5d]
[7f]
[9g]

[MO]
 Sym= A
 Ene=               0
 Spin= Alpha
 Occup=    1.00000
   1                     0
   2                     0
   3                     0
   4                     0
   5                     0
   6                     0
   7                     0
   8                     0
   9                     0
  10                     0
  11                     0
  12                     0
  13                     0
  14                     0
  15                     0
  16                     0
  17                     0
  18                     0
  19                     0
  20                     0
  21                     0
  22     -0.70359124491626
  23                     0
  24                     0
  25     -0.58986698880396
  26                     0
  27                     0
  28                     0
  29                     0
  30                     0
  31      0.09591384963064
  32                     0
  33                     0
  34      0.11872241127314
  35                     0
  36                     0
  37                     0
  38                     0
  39                     0
  40     0.091682098156144
  41                     0
  42                     0
  43      0.10985745851335
  44                     0
  45                     0
  46                     0
  47                     0
  48                     0
  49    -0.012761016454261
  50                     0
  51                     0
  52    -0.0097737427943042
  53                     0
  54                     0
  55                     0
  56                     0
  57                     0
  58     0.091682100140699
  59                     0
  60                     0
  61      0.10985746002721
  62                     0
  63                     0
  64                     0
  65                     0
  66                     0
  67    -0.012761016812612
  68                     0
  69                     0
  70    -0.0097737429803935
  71                     0
  72                     0
  73                     0
  74                     0
  75                     0
  76    -0.023600488116953
  77                     0
  78                     0
  79    0.0047946551869254
  80                     0
  81                     0
  82                     0
  83                     0
  84                     0
  85    -0.00070563916602495
  86                     0
  87                     0
  88    0.0087499688347588
  89                     0
  90                     0
  91                     0
  92                     0
  93                     0
  94    -0.023600487248844
  95                     0
  96                     0
  97    0.0047946557704126
  98                     0
  99                     0
 100                     0
 101                     0
 102                     0
 103    -0.00070564002019055
 104                     0
 105                     0
 106    0.0087499683166417
 Sym= A
 Ene=               1
 Spin= Alpha
 Occup=    1.00000
   1                     0
   2                     0
   3                     0
   4                     0
   5                     0
   6                     0
   7                     0
   8                     0
   9                     0
  10                     0
  11                     0
  12                     0
  13                     0
  14                     0
  15                     0
  16                     0
  17                     0
  18                     0
  19                     0
  20                     0
  21                     0
  22    0.0011653914646762
  23                     0
  24                     0
  25    0.0033570756206961
  26                     0
  27                     0
  28                     0
  29                     0
  30                     0
  31    -0.012266446631303
  32                     0
  33                     0
  34    -0.00086063494131727
  35                     0
  36                     0
  37                     0
  38                     0
  39                     0
  40    -0.022699489405072
  41                     0
  42                     0
  43    0.0061193113481329
  44                     0
  45                     0
  46                     0
  47                     0
  48                     0
  49    -0.0053247322410215
  50                     0
  51                     0
  52    0.00097692100421518
  53                     0
  54                     0
  55                     0
  56                     0
  57                     0
  58    -0.0015467896505054
  59                     0
  60                     0
  61    0.0018272611451757
  62                     0
  63                     0
  64                     0
  65                     0
  66                     0
  67      0.11130044783375
  68                     0
  69                     0
  70     0.095145541538042
  71                     0
  72                     0
  73                     0
  74                     0
  75                     0
  76      0.09054517285526
  77                     0
  78                     0
  79      0.10450747366317
  80                     0
  81                     0
  82                     0
  83                     0
  84                     0
  85     0.000446318684204
  86                     0
  87                     0
  88    0.0018192985192258
  89                     0
  90                     0
  91                     0
  92                     0
  93                     0
  94    0.0047656518313403
  95                     0
  96                     0
  97    -0.0071043487042966
  98                     0
  99                     0
 100                     0
 101                     0
 102                     0
 103     -0.69081140481408
 104                     0
 105                     0
 106     -0.54012718561315
 Sym= A
 Ene=               2
 Spin= Alpha
 Occup=    1.00000
   1                     0
   2                     0
   3                     0
   4                     0
   5                     0
   6                     0
   7                     0
   8                     0
   9                     0
  10                     0
  11                     0
  12                     0
  13                     0
  14                     0
  15                     0
  16                     0
  17                     0
  18                     0
  19                     0
  20                     0
  21                     0
  22     0.087288994327872
  23                     0
  24                     0
  25      0.12291969595619
  26                     0
  27                     0
  28                     0
  29                     0
  30                     0
  31    -0.015093849291773
  32                     0
  33                     0
  34    -0.0083211718426759
  35                     0
  36                     0
  37                     0
  38                     0
  39                     0
  40    -0.013235703646987
  41                     0
  42                     0
  43    -0.005771593448303
  44                     0
  45                     0
  46                     0
  47                     0
  48                     0
  49    -0.0027493238067686
  50                     0
  51                     0
  52     0.012588746205638
  53                     0
  54                     0
  55                     0
  56                     0
  57                     0
  58     -0.69438571397928
  59                     0
  60                     0
  61     -0.54175182929818
  62                     0
  63                     0
  64                     0
  65                     0
  66                     0
  67    -0.00018060781856766
  68                     0
  69                     0
  70    -0.0014707358605399
  71                     0
  72                     0
  73                     0
  74                     0
  75                     0
  76    -0.0032741103614705
  77                     0
  78                     0
  79    0.0019561016275919
  80                     0
  81                     0
  82                     0
  83                     0
  84                     0
  85    -0.015461567550917
  86                     0
  87                     0
  88    -0.0012289547533098
  89                     0
  90                     0
  91                     0
  92                     0
  93                     0
  94      0.11052583920187
  95                     0
  96                     0
  97     0.096329106292521
  98                     0
  99                     0
 100                     0
 101                     0
 102                     0
 103    0.0029607822297014
 104                     0
 105                     0
 106    -0.0059688696813335
 Sym= A
 Ene=               3
 Spin= Alpha
 Occup=    1.00000
   1                     0
   2                     0
   3                     0
   4                     0
   5                     0
   6                     0
   7                     0
   8                     0
   9                     0
  10                     0
  11                     0
  12                     0
  13                     0
  14                     0
  15                     0
  16                     0
  17                     0
  18                     0
  19                     0
  20                     0
  21                     0
  22    -0.095913852499294
  23                     0
  24                     0
  25     -0.11872241371882
  26                     0
  27                     0
  28                     0
  29                     0
  30                     0
  31      0.70359124459607
  32                     0
  33                     0
  34      0.58986698830049
  35                     0
  36                     0
  37                     0
  38                     0
  39                     0
  40     0.012761019827945
  41                     0
  42                     0
  43    0.0097737456926518
  44                     0
  45                     0
  46                     0
  47                     0
  48                     0
  49    -0.091682092052795
  50                     0
  51                     0
  52     -0.10985745352102
  53                     0
  54                     0
  55                     0
  56                     0
  57                     0
  58     0.012761017534045
  59                     0
  60                     0
  61    0.0097737436534651
  62                     0
  63                     0
  64                     0
  65                     0
  66                     0
  67    -0.091682100737071
  68                     0
  69                     0
  70     -0.10985746040943
  71                     0
  72                     0
  73                     0
  74                     0
  75                     0
  76    0.00070563447163274
  77                     0
  78                     0
  79    -0.0087499723591852
  80                     0
  81                     0
  82                     0
  83                     0
  84                     0
  85     0.023600487161929
  86                     0
  87                     0
  88    -0.004794655754445
  89                     0
  90                     0
  91                     0
  92                     0
  93                     0
  94    0.0007056349316289
  95                     0
  96                     0
  97    -0.0087499722841265
  98                     0
  99                     0
 100                     0
 101                     0
 102                     0
 103     0.023600487844028
 104                     0
 105                     0
 106    -0.0047946552238097
 Sym= A
 Ene=               4
 Spin= Alpha
 Occup=    1.00000
   1                     0
   2                     0
   3                     0
   4                     0
   5                     0
   6                     0
   7                     0
   8                     0
   9                     0
  10                     0
  11                     0
  12                     0
  13                     0
  14                     0
  15                     0
  16                     0
  17                     0
  18                     0
  19                     0
  20                     0
  21                     0
  22     0.015093848592885
  23                     0
  24                     0
  25    0.0083211711673396
  26                     0
  27                     0
  28                     0
  29                     0
  30                     0
  31    -0.087288993861725
  32                     0
  33                     0
  34     -0.12291969527267
  35                     0
  36                     0
  37                     0
  38                     0
  39                     0
  40    0.0027493227412819
  41                     0
  42                     0
  43    -0.012588746513956
  44                     0
  45                     0
  46                     0
  47                     0
  48                     0
  49     0.013235702794416
  50                     0
  51                     0
  52    0.0057715928263724
  53                     0
  54                     0
  55                     0
  56                     0
  57                     0
  58    0.00018060955706263
  59                     0
  60                     0
  61    0.0014707373504279
  62                     0
  63                     0
  64                     0
  65                     0
  66                     0
  67       0.6943857163795
  68                     0
  69                     0
  70      0.54175183129341
  71                     0
  72                     0
  73                     0
  74                     0
  75                     0
  76     0.015461571195451
  77                     0
  78                     0
  79    0.0012289583241885
  80                     0
  81                     0
  82                     0
  83                     0
  84                     0
  85    0.0032741095564187
  86                     0
  87                     0
  88    -0.0019561022413546
  89                     0
  90                     0
  91                     0
  92                     0
  93                     0
  94    -0.0029607821309328
  95                     0
  96                     0
  97    0.0059688695633342
  98                     0
  99                     0
 100                     0
 101                     0
 102                     0
 103     -0.11052585464211
 104                     0
 105                     0
 106    -0.096329118415918
 Sym= A
 Ene=               5
 Spin= Alpha
 Occup=    1.00000
   1                     0
   2                     0
   3                     0
   4                     0
   5                     0
   6                     0
   7                     0
   8                     0
   9                     0
  10                     0
  11                     0
  12                     0
  13                     0
  14                     0
  15                     0
  16                     0
  17                     0
  18                     0
  19                     0
  20                     0
  21                     0
  22     0.087288996658831
  23                     0
  24                     0
  25      0.12291969783652
  26                     0
  27                     0
  28                     0
  29                     0
  30                     0
  31    -0.015093846884734
  32                     0
  33                     0
  34    -0.0083211697656443
  35                     0
  36                     0
  37                     0
  38                     0
  39                     0
  40     -0.69438571540442
  41                     0
  42                     0
  43     -0.54175183055091
  44                     0
  45                     0
  46                     0
  47                     0
  48                     0
  49    -0.00018060770374818
  50                     0
  51                     0
  52    -0.0014707359504001
  53                     0
  54                     0
  55                     0
  56                     0
  57                     0
  58    -0.013235706665468
  59                     0
  60                     0
  61    -0.0057715960170643
  62                     0
  63                     0
  64                     0
  65                     0
  66                     0
  67    -0.0027493268992639
  68                     0
  69                     0
  70     0.012588743400777
  71                     0
  72                     0
  73                     0
  74                     0
  75                     0
  76      0.11052584625191
  77                     0
  78                     0
  79      0.09632911176344
  80                     0
  81                     0
  82                     0
  83                     0
  84                     0
  85    0.0029607816560603
  86                     0
  87                     0
  88    -0.0059688702023974
  89                     0
  90                     0
  91                     0
  92                     0
  93                     0
  94    -0.003274107292697
  95                     0
  96                     0
  97     0.001956103903362
  98                     0
  99                     0
 100                     0
 101                     0
 102                     0
 103     -0.01546156801659
 104                     0
 105                     0
 106    -0.0012289555177562
 Sym= A
 Ene=               6
 Spin= Alpha
 Occup=    1.00000
   1                     0
   2                     0
   3                     0
   4                     0
   5                     0
   6                     0
   7                     0
   8                     0
   9                     0
  10                     0
  11                     0
  12                     0
  13                     0
  14                     0
  15                     0
  16                     0
  17                     0
  18                     0
  19                     0
  20                     0
  21                     0
  22     0.012266445683228
  23                     0
  24                     0
  25    0.00086063462066656
  26                     0
  27                     0
  28                     0
  29                     0
  30                     0
  31    -0.001165386118384
  32                     0
  33                     0
  34    -0.0033570709107212
  35                     0
  36                     0
  37                     0
  38                     0
  39                     0
  40     -0.11130045592358
  41                     0
  42                     0
  43    -0.095145547609054
  44                     0
  45                     0
  46                     0
  47                     0
  48                     0
  49    0.0015467897652069
  50                     0
  51                     0
  52    -0.0018272612897674
  53                     0
  54                     0
  55                     0
  56                     0
  57                     0
  58    0.0053247300548445
  59                     0
  60                     0
  61    -0.00097692259373212
  62                     0
  63                     0
  64                     0
  65                     0
  66                     0
  67     0.022699487716331
  68                     0
  69                     0
  70    -0.0061193127563661
  71                     0
  72                     0
  73                     0
  74                     0
  75                     0
  76      0.69081140645598
  77                     0
  78                     0
  79      0.54012718720697
  80                     0
  81                     0
  82                     0
  83                     0
  84                     0
  85    -0.0047656515721227
  86                     0
  87                     0
  88    0.0071043486820451
  89                     0
  90                     0
  91                     0
  92                     0
  93                     0
  94    -0.0004463181986428
  95                     0
  96                     0