 &FCI NORB=  30,NELEC=30,MS2=0,
  ORBSYM=1,1,1,1,1,1,1,1,1,1,1,1,1,1,1,1,1,1,1,1,1,1,1,1,1,1,1,1,1,1,
  ISYM=1,
 &END
 0.2261959381808685    1    1    1    1
 0.1001223996470991    1    1    2    2
 -0.02370373167060738    1    1    3    1
 0.09515773672258958    1    1    3    3
 0.1896430525851675    1    1    4    4
 0.03822391321120515    1    1    5    2
 0.1761072312357046    1    1    5    5
 -0.01163637932213763    1    1    6    1
 -0.02028357815096768    1    1    6    3
 0.1483147134590195    1    1    6    6
 -0.0343688629135948    1    1    7    1
 0.0191042853554901    1    1    7    3
 0.02383481813673856    1    1    7    6
 0.1529918332137871    1    1    7    7
 -0.001812306796288724    1    1    8    2
 0.0481444326481892    1    1    8    5
 0.1496667134772064    1    1    8    8
 0.1831033856886209    1    1    9    9
 0.0002182896532272193    1    1   10    4
 0.0784225392074706    1    1   10   10
 -0.01213973973310563    1    1   11    9
 0.07982577465039006    1    1   11   11
 -0.002780982312650067    1    1   12    2
 -0.01206296180115482    1    1   12    5
 0.03681114605639975    1    1   12    8
 0.1354707702544914    1    1   12   12
 0.0126017257915887    1    1   13    1
 -0.0055614705265579    1    1   13    3
 0.02209504185190058    1    1   13    6
 -0.03653699569308255    1    1   13    7
 0.1185917784229455    1    1   13   13
 0.04232664763341729    1    1   14    4
 0.0007803390111043784    1    1   14   10
 0.2112940169372191    1    1   14   14
 0.005847718536331521    1    1   15    2
 0.02868426611397103    1    1   15    5
 0.03462364254057476    1    1   15    8
 -0.02260424242314919    1    1   15   12
 0.183703244879567    1    1   15   15
 0.003492039292591008    1    1   16    1
 0.002307122715759383    1    1   16    3
 -0.02278093754606798    1    1   16    6
 -0.00875319201225514    1    1   16    7
 -0.02235375954916804    1    1   16   13
 0.1881449518392299    1    1   16   16
 5.119438261509386e-05    1    1   17    2
 -0.0003827290661640268    1    1   17    5
 0.008774401360801107    1    1   17    8
 0.01897423751267538    1    1   17   12
 0.02177523727158903    1    1   17   15
 0.1069884255437617    1    1   17   17
 -0.007312290026789459    1    1   18    1
 0.001459115546752709    1    1   18    3
 0.002915926404439364    1    1   18    6
 0.01569775182191308    1    1   18    7
 -0.02023808460747877    1    1   18   13
 -0.02570449048280576    1    1   18   16
 0.1333711660559471    1    1   18   18
 0.03162382275082786    1    1   19    9
 -0.003502340311762993    1    1   19   11
 0.2111860318564434    1    1   19   19
 -0.0001863252895259924    1    1   20    4
 0.008366735134936878    1    1   20   10
 -0.001108445114518449    1    1   20   14
 0.07926021947377843    1    1   20   20
 0.0004855063221641144    1    1   21    9
 0.008374307831668766    1    1   21   11
 -0.001882251253889835    1    1   21   19
 0.07918714360638575    1    1   21   21
 -0.004629721410416995    1    1   22    4
 -0.0004107407458317587    1    1   22   10
 -0.03201883218337593    1    1   22   14
 0.003303965224107982    1    1   22   20
 0.1878904313752065    1    1   22   22
 -0.004584789189176801    1    1   23    1
 0.003131576135620632    1    1   23    3
 -0.004708181265136195    1    1   23    6
 0.009454823499785419    1    1   23    7
 -0.01079059154513127    1    1   23   13
 0.04015443533862256    1    1   23   16
 0.03700819846780813    1    1   23   18
 0.1638658467502241    1    1   23   23
 0.001931703469707087    1    1   24    2
 0.002826848583925686    1    1   24    5
 -0.009389665563766346    1    1   24    8
 -0.01830823560857428    1    1   24   12
 0.01126698174764957    1    1   24   15
 -0.02783093618714681    1    1   24   17
 0.1702367549056765    1    1   24   24
 -0.0007403895412782387    1    1   25    2
 0.0005393982311384776    1    1   25    5
 0.007632662937721129    1    1   25    8
 0.003850790726842533    1    1   25   12
 0.0221399214257307    1    1   25   15
 0.02888839084810729    1    1   25   17
 0.0136046697515507    1    1   25   24
 0.1374213532275262    1    1   25   25
 0.0002477150065838643    1    1   26    1
 -0.0003945234141743456    1    1   26    3
 0.0001170543457198895    1    1   26    6
 -0.003517150778164109    1    1   26    7
 0.003942790882492025    1    1   26   13
 0.02172564664444045    1    1   26   16
 -0.01307585838190733    1    1   26   18
 0.04255192047734625    1    1   26   23
 0.1274606884756412    1    1   26   26
 0.004569034133415257    1    1   27    9
 -0.0005058707826053017    1    1   27   11
 0.04339120248122395    1    1   27   19
 -0.0009104262710254885    1    1   27   21
 0.1943020239462634    1    1   27   27
 -0.0006938933970904056    1    1   28    2
 -0.0001287579470451473    1    1   28    5
 0.005241097655877078    1    1   28    8
 0.004152228560629743    1    1   28   12
 0.005887458577698724    1    1   28   15
 0.009510859861448123    1    1   28   17
 -0.01944698893231899    1    1   28   24
 0.03539675368614075    1    1   28   25
 0.1113261379372251    1    1   28   28
 0.0008143983771469938    1    1   29    1
 -0.0009993097593659365    1    1   29    3
 0.001248921270037274    1    1   29    6
 -0.005055836596182085    1    1   29    7
 0.004473700004947983    1    1   29   13
 0.01655310965121769    1    1   29   16
 -0.00962223962157065    1    1   29   18
 0.01879876964889628    1    1   29   23
 0.05111533070965951    1    1   29   26
 0.1430550992546744    1    1   29   29
 2.429452357167694e-05    1    1   30    2
 0.0004173140591485329    1    1   30    5
 0.001526535838252437    1    1   30    8
 0.004938048396388138    1    1   30   12
 -0.009560010375732689    1    1   30   15
 0.004946120353770051    1    1   30   17
 -0.03772643982957672    1    1   30   24
 -0.000243170267379607    1    1   30   25
 0.02952168707273028    1    1   30   28
 0.2249767270892765    1    1   30   30
 0.01105823554342389    2    1    2    1
 0.02601746490168005    2    1    3    2
 0.01694036733283901    2    1    5    1
 -0.004068556566358489    2    1    5    3
 -0.006369977296716397    2    1    6    2
 -0.02044196577468891    2    1    6    5
 0.005807359648074419    2    1    7    2
 0.007677680724803709    2    1    7    5
 0.004972509036599673    2    1    8    1
 -0.007771345934268944    2    1    8    3
 0.01294337330262692    2    1    8    6
 -0.01663282544586401    2    1    8    7
 0.008805342270087588    2    1    9    4
 0.002688290908838219    2    1   10    9
 -0.001012818026181074    2    1   11    4
 0.02299378363997821    2    1   11   10
 -0.001076234885323631    2    1   12    1
 0.001926118790006662    2    1   12    3
 0.008531633144057105    2    1   12    6
 0.004182161490542998    2    1   12    7
 0.0006772285444653324    2    1   13    2
 -0.009978665286627518    2    1   13    5
 -0.005095752778969802    2    1   13    8
 0.02234717861602714    2    1   13   12
 0.002767691792411065    2    1   14    9
 -0.0004563918385926188    2    1   14   11
 0.003718992326679528    2    1   15    1
 -0.001366740555471051    2    1   15    3
 0.002273145311472527    2    1   15    6
 -0.01080209374844038    2    1   15    7
 0.0150359761165945    2    1   15   13
 -5.546269334849095e-05    2    1   16    2
 0.003687455449329911    2    1   16    5
 0.006531550307396164    2    1   16    8
 -0.002748585617674998    2    1   16   12
 0.01481819653207881    2    1   16   15
 0.0002993955759322227    2    1   17    1
 0.00155632732537809    2    1   17    3
 0.0003132219641621702    2    1   17    6
 0.001451723441103856    2    1   17    7
 0.005751111498656642    2    1   17   13
 -0.0137747264535866    2    1   17   16
 -0.001015894120507251    2    1   18    2
 0.001673455462853364    2    1   18    5
 0.003943645240021412    2    1   18    8
 -0.00115269064100563    2    1   18   12
 -0.002914582123796234    2    1   18   15
 -0.02175671661965628    2    1   18   17
 0.00398803843065328    2    1   19    4
 8.772074466634877e-05    2    1   19   10
 0.009341456629445384    2    1   19   14
 0.000555254931079745    2    1   20    9
 0.003374192625921994    2    1   20   11
 0.0002399289069538155    2    1   20   19
 -5.418217908143117e-05    2    1   21    4
 0.003416256946671959    2    1   21   10
 -0.0001458764374623694    2    1   21   14
 0.02374567342177413    2    1   21   20
 0.005035309671885074    2    1   22    9
 -0.0006969931275807859    2    1   22   11
 -0.00209780982686648    2    1   22   19
 -0.0006667545503240372    2    1   22   21
 0.001411324128999712    2    1   23    2
 0.003035381149316957    2    1   23    5
 0.004468749754928556    2    1   23    8
 0.004316152291228449    2    1   23   12
 0.006610262060726783    2    1   23   15
 0.008112048709753308    2    1   23   17
 0.0003772663186767081    2    1   24    1
 0.0003906240167497803    2    1   24    3
 -0.0009137107050243855    2    1   24    6
 -0.00105043694440649    2    1   24    7
 0.0007512800766651173    2    1   24   13
 0.01179435982194534    2    1   24   16
 -0.004657343350045596    2    1   24   18
 0.01177868895214349    2    1   24   23
 -3.825579079879306e-05    2    1   25    1
 -1.260283609563731e-05    2    1   25    3
 -0.0002243997226955196    2    1   25    6
 -0.0001271815845544727    2    1   25    7
 0.0006995621176392711    2    1   25   13
 -0.005175945652778872    2    1   25   16
 -0.007827221600123651    2    1   25   18
 -0.01287204023762678    2    1   25   23
 0.0006422753039072979    2    1   26    2
 0.001162934023247603    2    1   26    5
 0.001209356593245036    2    1   26    8
 0.001986477346092382    2    1   26   12
 0.001966237219920179    2    1   26   15
 0.008511098719176075    2    1   26   17
 -0.004219366268266545    2    1   26   24
 0.01992051760269731    2    1   26   25
 0.0009875370103980864    2    1   27    4
 3.556591283135813e-05    2    1   27   10
 0.003993620395165379    2    1   27   14
 -0.0002071122334417724    2    1   27   20
 -0.009137608303166041    2    1   27   22
 -0.0003724815846945494    2    1   28    1
 -0.0008207411950866485    2    1   28    3
 0.0002356981646550283    2    1   28    6
 -0.0004295324213150796    2    1   28    7
 -0.001262865345542789    2    1   28   13
 -0.003140777263469768    2    1   28   16
 0.001159469292991013    2    1   28   18
 -0.01049387360095944    2    1   28   23
 -0.01128713630515797    2    1   28   26
 -0.000621648184107913    2    1   29    2
 0.0007805933892476578    2    1   29    5
 0.001658730234458706    2    1   29    8
 -3.936990379246057e-05    2    1   29   12
 0.0001492114634097318    2    1   29   15
 0.001716454049194071    2    1   29   17
 -0.006166082301605066    2    1   29   24
 0.01172595162094107    2    1   29   25
 0.02422844773131884    2    1   29   28
 -0.0004597968892917345    2    1   30    1
 0.0003418964694411856    2    1   30    3
 0.0001293515411477966    2    1   30    6
 0.0004391424956955697    2    1   30    7
 0.000138473900694503    2    1   30   13
 -0.003203151500301711    2    1   30   16
 0.001875697270470154    2    1   30   18
 -0.004084821642901618    2    1   30   23
 -0.01242507174743177    2    1   30   26
 -0.02118662546377548    2    1   30   29
 0.1001223996470991    2    2    1    1
 0.1593683016036971    2    2    2    2
 0.01374899563746763    2    2    3    1
 0.1583282373005424    2    2    3    3
 0.0853983699732786    2    2    4    4
 -0.00826729587125119    2    2    5    2
 0.1240961430016828    2    2    5    5
 -0.01160568994648033    2    2    6    1
 0.004007418804871295    2    2    6    3
 0.1158372773704616    2    2    6    6
 0.002310326359958868    2    2    7    1
 0.008984265340838272    2    2    7    3
 -0.02771647313487172    2    2    7    6
 0.1139170449713248    2    2    7    7
 -0.01425871078215687    2    2    8    2
 -0.01735000221509536    2    2    8    5
 0.1277786371393055    2    2    8    8
 0.08755166451275995    2    2    9    9
 6.350121338921597e-05    2    2   10    4
 0.1537995928897008    2    2   10   10
 0.007694184311300021    2    2   11    9
 0.1529075194849809    2    2   11   11
 0.01164773914081731    2    2   12    2
 -0.008684069305787995    2    2   12    5
 -0.02222637971835127    2    2   12    8
 0.1271034161848823    2    2   12   12
 -0.0004686807816194084    2    2   13    1
 0.01607617355545889    2    2   13    3
 0.003453195516213446    2    2   13    6
 0.01552011057293238    2    2   13    7
 0.147437399292537    2    2   13   13
 0.006877533163633326    2    2   14    4
 -0.0004014083204970256    2    2   14   10
 0.08720593442026515    2    2   14   14
 0.00353247731858132    2    2   15    2
 -0.007683261347651222    2    2   15    5
 0.002757039317081631    2    2   15    8
 0.02430347958915721    2    2   15   12
 0.1115373733263049    2    2   15   15
 0.0002405643412110294    2    2   16    1
 -0.001701962989210073    2    2   16    3
 0.004375298868500523    2    2   16    6
 -0.01190192360152568    2    2   16    7
 0.008944537311643103    2    2   16   13
 0.1119937316456237    2    2   16   16
 0.005973259417115555    2    2   17    2
 0.003463662328225221    2    2   17    5
 -0.01186104104556369    2    2   17    8
 0.006007811246846812    2    2   17   12
 -0.007173758129272542    2    2   17   15
 0.1527192224957086    2    2   17   17
 -0.0008913663103714386    2    2   18    1
 -0.004737502042850807    2    2   18    3
 0.006979616975993624    2    2   18    6
 -0.005516192359826404    2    2   18    7
 -0.005249772139718149    2    2   18   13
 0.02406935536127401    2    2   18   16
 0.1283107498790415    2    2   18   18
 0.005583847745460187    2    2   19    9
 -0.000543080184791775    2    2   19   11
 0.08800370669472307    2    2   19   19
 6.615769554484195e-05    2    2   20    4
 0.01065965303203278    2    2   20   10
 -0.0001848452962167003    2    2   20   14
 0.1561774625095079    2    2   20   20
 0.001183352646870818    2    2   21    9
 0.01060020080824397    2    2   21   11
 0.0008588026336947602    2    2   21   19
 0.1562289298392113    2    2   21   21
 0.001799995458166353    2    2   22    4
 -0.0003840902897698026    2    2   22   10
 -0.004941255776420049    2    2   22   14
 -0.00210088609645998    2    2   22   20
 0.08662151878317892    2    2   22   22
 0.001648798754380977    2    2   23    1
 0.003291285654907994    2    2   23    3
 0.001957611213875065    2    2   23    6
 0.00182501205681161    2    2   23    7
 0.01195426634352617    2    2   23   13
 0.001298212484327926    2    2   23   16
 -0.0246689273102927    2    2   23   18
 0.1226010476715093    2    2   23   23
 0.001819342293941306    2    2   24    2
 -0.001655454544264109    2    2   24    5
 -0.001107147009451771    2    2   24    8
 0.0033723131319896    2    2   24   12
 0.01159039431737969    2    2   24   15
 0.01250264038888712    2    2   24   17
 0.1003306174510549    2    2   24   24
 -0.0004776808123118329    2    2   25    2
 0.002843768144154494    2    2   25    5
 -0.002930274624200812    2    2   25    8
 -0.007056486204017083    2    2   25   12
 -0.007525658539380172    2    2   25   15
 0.002514595450594119    2    2   25   17
 -0.02299930745642747    2    2   25   24
 0.1276907621091969    2    2   25   25
 0.001165900166464734    2    2   26    1
 0.0009765955185921443    2    2   26    3
 -0.00283102938820679    2    2   26    6
 0.002979630878429101    2    2   26    7
 -0.002396699957409453    2    2   26   13
 -0.009914873321306233    2    2   26   16
 -0.01177094520261676    2    2   26   18
 -0.01001627821137182    2    2   26   23
 0.141443168710714    2    2   26   26
 -0.001452181654594205    2    2   27    9
 0.0002214574470561984    2    2   27   11
 0.00696565706080567    2    2   27   19
 0.0001221366721933821    2    2   27   21
 0.08641738800602478    2    2   27   27
 -0.00370023055196005    2    2   28    2
 0.0004915596529451641    2    2   28    5
 0.002446072858359499    2    2   28    8
 -0.006059881399436726    2    2   28   12
 -0.004073947179929644    2    2   28   15
 -0.01743502036805564    2    2   28   17
 -0.00950853123222874    2    2   28   24
 -0.009800796730441338    2    2   28   25
 0.155500167990126    2    2   28   28
 -0.0001059377951823402    2    2   29    1
 -0.003679291186837475    2    2   29    3
 -0.001002917313534797    2    2   29    6
 -0.0009007673256056249    2    2   29    7
 -0.008332456181038212    2    2   29   13
 -0.001565539441378773    2    2   29   16
 0.008202264441826377    2    2   29   18
 -0.0204579204600698    2    2   29   23
 -0.01473867931442524    2    2   29   26
 0.1526529233698473    2    2   29   29
 0.001039823839662834    2    2   30    2
 -0.001790804364951693    2    2   30    5
 -0.0008999873147824888    2    2   30    8
 0.002615059993968391    2    2   30   12
 0.002011724344143241    2    2   30   15
 0.0008304570380152942    2    2   30   17
 0.003596332444031196    2    2   30   24
 -0.01383797622082361    2    2   30   25
 -0.01973321519535428    2    2   30   28
 0.1081243957665595    2    2   30   30
 -0.02370373167060737    3    1    1    1
 0.01374899563746763    3    1    2    2
 0.008449389232975949    3    1    3    1
 0.01328052284426959    3    1    3    3
 -0.02262670483481646    3    1    4    4
 -0.005747161733133893    3    1    5    2
 -0.005567971156267474    3    1    5    5
 -0.003303620315368893    3    1    6    1
 0.002602273573620717    3    1    6    3
 -0.003483688568959953    3    1    6    6
 0.007725352020102664    3    1    7    1
 0.0005538049574822614    3    1    7    3
 -0.01316262173715885    3    1    7    6
 -0.006873963005911646    3    1    7    7
 -0.005228092934884752    3    1    8    2
 -0.01401833219432727    3    1    8    5
 -0.002841385235072217    3    1    8    8
 -0.02060085339763409    3    1    9    9
 -2.52653225097765e-05    3    1   10    4
 0.01389338839292336    3    1   10   10
 0.004004480013928969    3    1   11    9
 0.01342978842237145    3    1   11   11
 0.002273406776239156    3    1   12    2
 -0.003120564609889722    3    1   12    5
 -0.01105744797062256    3    1   12    8
 -0.000386936478070289    3    1   12   12
 -0.004215236475284365    3    1   13    1
 0.004437865566665892    3    1   13    3
 0.0002961582310007364    3    1   13    6
 0.008522912157774168    3    1   13    7
 0.008618881359710957    3    1   13   13
 -0.006330824601631874    3    1   14    4
 -0.0002375711979890273    3    1   14   10
 -0.02626896754418934    3    1   14   14
 -0.001445952251883507    3    1   15    2
 -0.008513135584903823    3    1   15    5
 -0.00320430504762608    3    1   15    8
 0.01122130882023554    3    1   15   12
 -0.01184382642903652    3    1   15   15
 0.0007004394040060545    3    1   16    1
 -0.001819456793072801    3    1   16    3
 0.005311257099553242    3    1   16    6
 -0.003034108352754135    3    1   16    7
 0.006022141735217455    3    1   16   13
 -0.01274035940966661    3    1   16   16
 0.001556912756811589    3    1   17    2
 -0.0004745978257163349    3    1   17    5
 -0.005189192093933614    3    1   17    8
 -0.0002600953406770128    3    1   17   12
 -0.005306823892937822    3    1   17   15
 0.01093176859003248    3    1   17   17
 0.001543034025158385    3    1   18    1
 -0.001779207002483834    3    1   18    3
 0.000506652074747167    3    1   18    6
 -0.004311338704997895    3    1   18    7
 0.0007362081196889089    3    1   18   13
 0.01138641894952351    3    1   18   16
 -0.0003677904140060661    3    1   18   18
 -0.004500241080864671    3    1   19    9
 0.0005254542751844776    3    1   19   11
 -0.0259139965211941    3    1   19   19
 5.681166136695957e-05    3    1   20    4
 0.001651168105279948    3    1   20   10
 0.0001624557904784922    3    1   20   14
 0.01428047905771984    3    1   20   20
 0.0002689843393421453    3    1   21    9
 0.00163127507670668    3    1   21   11
 0.0005467108570862451    3    1   21   19
 0.01430589425494611    3    1   21   21
 0.001469618388580882    3    1   22    4
 -3.342915123871093e-05    3    1   22   10
 0.004914524959753586    3    1   22   14
 -0.001096461796327164    3    1   22   20
 -0.02189639492686698    3    1   22   22
 0.002077339807686152    3    1   23    1
 -0.0002762382069474477    3    1   23    3
 0.001790825080986113    3    1   23    6
 -0.002562451973923096    3    1   23    7
 0.005835570572355325    3    1   23   13
 -0.004863889644382262    3    1   23   16
 -0.01216558363116752    3    1   23   18
 -0.007192291465865247    3    1   23   23
 6.030116275726108e-06    3    1   24    2
 -0.000329318140066193    3    1   24    5
 0.002596166380969401    3    1   24    8
 0.004141150106804868    3    1   24   12
 0.002289708115546549    3    1   24   15
 0.006945677780663727    3    1   24   17
 -0.01397149925213855    3    1   24   24
 0.0001731402682427221    3    1   25    2
 -0.0001400052785784706    3    1   25    5
 -0.002880133247488576    3    1   25    8
 -0.001555770564838398    3    1   25   12
 -0.006313805281266153    3    1   25   15
 -0.001626200472038718    3    1   25   17
 -0.009600296593986476    3    1   25   24
 0.0009852863506661673    3    1   25   25
 0.0004160303119532177    3    1   26    1
 0.0004006698210209763    3    1   26    3
 -0.0002339103677594395    3    1   26    6
 0.00110752482917924    3    1   26    7
 0.000130447501385866    3    1   26   13
 -0.007537927601982125    3    1   26   16
 -0.002886818276129768    3    1   26   18
 -0.01027945611728666    3    1   26   23
 0.00469522583324233    3    1   26   26
 -0.001287704671552569    3    1   27    9
 0.0001584752648024215    3    1   27   11
 -0.006419919754698637    3    1   27   19
 0.0001959812865202934    3    1   27   21
 -0.02320180984914342    3    1   27   27
 -0.0007118824309833706    3    1   28    2
 -0.0001133535724150029    3    1   28    5
 -0.001046379909159187    3    1   28    8
 -0.002395598087292785    3    1   28   12
 -0.003170273618624229    3    1   28   15
 -0.005436387622233753    3    1   28   17
 -0.0004140008994255307    3    1   28   24
 -0.006179754121515533    3    1   28   25
 0.01033632921756077    3    1   28   28
 -8.940706946702442e-05    3    1   29    1
 -0.0005604565283123239    3    1   29    3
 -0.0002900190240808318    3    1   29    6
 0.0007833350927729718    3    1   29    7
 -0.002184881413572269    3    1   29   13
 -0.005294796410423026    3    1   29   16
 0.001771173948348746    3    1   29   18
 -0.01041557793816658    3    1   29   23
 -0.009218468019918097    3    1   29   26
 0.007683580832941597    3    1   29   29
 0.0001158695023788896    3    1   30    2
 -0.0006674507981962472    3    1   30    5
 -0.001002929208064256    3    1   30    8
 -0.0009469888809409766    3    1   30   12
 0.001288973237496442    3    1   30   15
 -0.002652999469725823    3    1   30   17
 0.008679365671341893    3    1   30   24
 -0.006532542763838233    3    1   30   25
 -0.01179148049545924    3    1   30   28
 -0.0205180085745294    3    1   30   30
 0.02601746490168003    3    2    2    1
 0.1099137186797672    3    2    3    2
 0.01432160914920649    3    2    5    1
 -0.03162549321718001    3    2    5    3
 0.004894264746700439    3    2    6    2
 -0.04602328722404429    3    2    6    5
 0.007747589418838733    3    2    7    2
 0.0321754226904822    3    2    7    5
 -0.002631510058503793    3    2    8    1
 -0.008744200058020263    3    2    8    3
 0.04390577148069084    3    2    8    6
 -0.05122828621628873    3    2    8    7
 0.009659636995154897    3    2    9    4
 0.0130782247208012    3    2   10    9
 -0.001086902706967764    3    2   11    4
 0.112607463180914    3    2   11   10
 0.00113660857434388    3    2   12    1
 0.01300075971540208    3    2   12    3
 -0.001151658377068381    3    2   12    6
 0.02826340109994061    3    2   12    7
 0.01400401498817743    3    2   13    2
 -0.008070822199039523    3    2   13    5
 -0.04347829161917511    3    2   13    8
 0.07614972597900671    3    2   13   12
 0.0006908668324617384    3    2   14    9
 -0.0007631722190317762    3    2   14   11
 -0.001762427607291493    3    2   15    1
 0.005328878186458455    3    2   15    3
 0.006194035599831763    3    2   15    6
 -0.005131757701603316    3    2   15    7
 0.04623326994066083    3    2   15   13
 -0.002102927663548981    3    2   16    2
 -0.006406648474030094    3    2   16    5
 0.008495270782066862    3    2   16    8
 0.008629108810165187    3    2   16   12
 0.02604564147109076    3    2   16   15
 0.001417189325055599    3    2   17    1
 0.005315439466313437    3    2   17    3
 -0.007989685320613076    3    2   17    6
 0.0100778087649314    3    2   17    7
 -0.001348706479368943    3    2   17   13
 -0.04676701933146958    3    2   17   16
 -0.004369465462698327    3    2   18    2
 -0.002258215515426802    3    2   18    5
 0.01201581071258931    3    2   18    8
 0.002704934394290286    3    2   18   12
 0.007686346159892115    3    2   18   15
 -0.08164930424310406    3    2   18   17
 0.001256652786676708    3    2   19    4
 7.718669771607609e-05    3    2   19   10
 0.007264064972893451    3    2   19   14
 0.001067505006433725    3    2   20    9
 0.006941622810117768    3    2   20   11
 0.001498051465364923    3    2   20   19
 2.481565010823226e-06    3    2   21    4
 0.007021021097895449    3    2   21   10
 -8.705016157732688e-05    3    2   21   14
 0.1155696091753837    3    2   21   20
 0.007019721705051844    3    2   22    9
 -0.001074096840184834    3    2   22   11
 -0.0002415572568425615    3    2   22   19
 -0.00346739516374193    3    2   22   21
 0.003589356510643622    3    2   23    2
 -0.0004219154508198875    3    2   23    5
 0.001224062796593476    3    2   23    8
 0.01275162609475344    3    2   23   12
 0.008206256576033428    3    2   23   15
 0.0504900347661606    3    2   23   17
 -0.0003060191766961469    3    2   24    1
 0.001890663671339654    3    2   24    3
 0.002472809224773261    3    2   24    6
 -0.0004277721673772001    3    2   24    7
 0.008574438683197683    3    2   24   13
 0.007351762331240746    3    2   24   16
 -0.02164553910805512    3    2   24   18
 0.03242841227676586    3    2   24   23
 -0.0003020183232908447    3    2   25    1
 -0.0005718392828758605    3    2   25    3
 -0.004663865961381897    3    2   25    6
 0.003559419803951353    3    2   25    7
 -0.01039368851865688    3    2   25   13
 -0.009731345250280457    3    2   25   16
 0.002017114524189213    3    2   25   18
 -0.04166744120359105    3    2   25   23
 0.001617843329986737    3    2   26    2
 0.003461658736770062    3    2   26    5
 -0.002684372238851058    3    2   26    8
 -0.002016783142848172    3    2   26   12
 -0.007466295831568492    3    2   26   15
 0.008935777525342109    3    2   26   17
 -0.0233458713520744    3    2   26   24
 0.06535776483164754    3    2   26   25
 -0.000589876277514913    3    2   27    4
 5.205176073355371e-05    3    2   27   10
 0.001190382510491987    3    2   27   14
 5.787534522020535e-05    3    2   27   20
 -0.009640874946213018    3    2   27   22
 -0.001077438844361068    3    2   28    1
 -0.00349407491776672    3    2   28    3
 -0.0004598417040716884    3    2   28    6
 -0.001547134308174744    3    2   28    7
 -0.007587398107193208    3    2   28   13
 0.002711853640094923    3    2   28   16
 0.01360505279762082    3    2   28   18
 -0.01659309949195038    3    2   28   23
 -0.06454073813497124    3    2   28   26
 -0.003213026159433766    3    2   29    2
 0.002742818618492033    3    2   29    5
 0.001862126160969895    3    2   29    8
 -0.006892489422135419    3    2   29   12
 -0.007920674730068772    3    2   29   15
 -0.01364964751933695    3    2   29   17
 -0.01510160086284078    3    2   29   24
 0.003901325375333469    3    2   29   25
 0.08841645358072528    3    2   29   28
 -0.0004082248204711201    3    2   30    1
 0.001510971295220927    3    2   30    3
 0.0007175430833599161    3    2   30    6
 -0.0008267134558170971    3    2   30    7
 0.004343530670701254    3    2   30   13
 0.003495572016807357    3    2   30   16
 -0.002333169568032807    3    2   30   18
 0.007844830751909931    3    2   30   23
 -0.006540349125677298    3    2   30   26
 -0.03991086756849385    3    2   30   29
 0.09515773672258956    3    3    1    1
 0.1583282373005424    3    3    2    2
 0.01328052284426959    3    3    3    1
 0.1592317867776242    3    3    3    3
 0.08446120292065484    3    3    4    4
 -0.01478220916388817    3    3    5    2
 0.1164068563653063    3    3    5    5
 -0.007343134805156759    3    3    6    1
 0.008427349961315281    3    3    6    3
 0.1102888996374572    3    3    6    6
 0.001861704141658928    3    3    7    1
 0.004760304377464172    3    3    7    3
 -0.02545410992194454    3    3    7    6
 0.1112978733596334    3    3    7    7
 -0.01003064649923766    3    3    8    2
 -0.01763053903875697    3    3    8    5
 0.1251610530336392    3    3    8    8
 0.08633138006514193    3    3    9    9
 5.697388807712128e-05    3    3   10    4
 0.1580092665819174    3    3   10   10
 0.00832171344527215    3    3   11    9
 0.1570447711364588    3    3   11   11
 0.01250786947863263    3    3   12    2
 -0.003163225520593991    3    3   12    5
 -0.0253866729862357    3    3   12    8
 0.1248159402051593    3    3   12   12
 0.001627631578302062    3    3   13    1
 0.01600578494377083    3    3   13    3
 -0.002905976183666644    3    3   13    6
 0.01988630165477548    3    3   13    7
 0.1443295907756713    3    3   13   13
 0.005761568831618374    3    3   14    4
 -0.0004355508874087468    3    3   14   10
 0.08588899919853553    3    3   14   14
 0.005018595686712472    3    3   15    2
 -0.006003883957467364    3    3   15    5
 -0.002159257449814669    3    3   15    8
 0.02328182719309586    3    3   15   12
 0.1059967159871396    3    3   15   15