 &FCI NORB=   7,NELEC=10,MS2=0,
  ORBSYM=1,1,1,1,1,1,1,
  ISYM=1,
 &END
 0.5098097788746845    1    1    1    1
 0.04671141244628566    1    1    2    1
 0.4344361302629838    1    1    2    2
 0.05391458801784102    1    1    3    1
 0.06096295099585988    1    1    3    2
 0.6202750501192925    1    1    3    3
 -0.1156684996303799    1    1    4    1
 0.06764682433058437    1    1    4    2
 -0.002350180702147174    1    1    4    3
 0.6234637701265685    1    1    4    4
 -0.04383489096228595    1    1    5    1
 -0.02539757081622012    1    1    5    2
 -0.01138825085493429    1    1    5    3
 0.006767346823053775    1    1    5    4
 0.7602351067945626    1    1    5    5
 0.05000243878050661    1    1    6    1
 -0.01355292274069794    1    1    6    2
 -0.08391063209879894    1    1    6    3
 0.00403086803117199    1    1    6    4
 -0.04912393632991977    1    1    6    5
 0.4421618146237992    1    1    6    6
 0.0005718462727578918    1    1    7    1
 -0.03138507517690879    1    1    7    2
 0.06606706733460935    1    1    7    3
 0.02875902778371291    1    1    7    4
 0.01361407423484555    1    1    7    5
 0.0345009514693428    1    1    7    6
 0.4050637278054052    1    1    7    7
 0.04671141244628543    2    1    1    1
 0.02306910966411906    2    1    2    1
 0.04002486872786425    2    1    2    2
 0.01672171422727518    2    1    3    1
 0.015295172059482    2    1    3    2
 0.08195905676468573    2    1    3    3
 -0.02061869962516469    2    1    4    1
 0.01975357236271438    2    1    4    2
 2.454313040016344e-06    2    1    4    3
 0.07429727219950122    2    1    4    4
 -0.0081839690709548    2    1    5    1
 -0.004560588832137111    2    1    5    2
 -0.009041200292235709    2    1    5    3
 0.002590078219707881    2    1    5    4
 0.1157792052145556    2    1    5    5
 0.009280056355781052    2    1    6    1
 0.003062357277783246    2    1    6    2
 -0.01717133996256219    2    1    6    3
 0.009103835542807345    2    1    6    4
 -0.006233524240200221    2    1    6    5
 0.03545749828958482    2    1    6    6
 -0.003096752077064825    2    1    7    1
 -0.007009931132842312    2    1    7    2
 0.01882286684551503    2    1    7    3
 0.01027206345229497    2    1    7    4
 0.001886959064258856    2    1    7    5
 0.006032407687057349    2    1    7    6
 0.03584577922942338    2    1    7    7
 0.4344361302629838    2    2    1    1
 0.04002486872786421    2    2    2    1
 0.4707894614123019    2    2    2    2
 0.0572130868192967    2    2    3    1
 0.04471369203053491    2    2    3    2
 0.597340328987946    2    2    3    3
 -0.06511444083764696    2    2    4    1
 0.09992591064869016    2    2    4    2
 0.001916326502407606    2    2    4    3
 0.6018693842542771    2    2    4    4
 -0.02797756824018223    2    2    5    1
 -0.02342428293473174    2    2    5    2
 -0.01897134833480852    2    2    5    3
 0.003919405097435993    2    2    5    4
 0.7201144628180889    2    2    5    5
 0.03610550455154642    2    2    6    1
 -0.0008228658818586906    2    2    6    2
 -0.05948683627235665    2    2    6    3
 0.02551565284664651    2    2    6    4
 -0.02376937663494285    2    2    6    5
 0.4000670964611997    2    2    6    6
 0.01370133099309425    2    2    7    1
 -0.03395281860065763    2    2    7    2
 0.08053827379568569    2    2    7    3
 0.01358702803397297    2    2    7    4
 0.0188589474554772    2    2    7    5
 0.03232670924648021    2    2    7    6
 0.4186782397868786    2    2    7    7
 0.0539145880178409    3    1    1    1
 0.0167217142272752    3    1    2    1
 0.05721308681929659    3    1    2    2
 0.05872849333361781    3    1    3    1
 0.03825558654689806    3    1    3    2
 0.07141511270648734    3    1    3    3
 -0.02130977585340246    3    1    4    1
 0.03574588396310838    3    1    4    2
 -0.004302383959425609    3    1    4    3
 0.07061210571080036    3    1    4    4
 -0.01202610438975197    3    1    5    1
 -0.01347568042014218    3    1    5    2
 -0.0005455134556199543    3    1    5    3
 0.005663463390384232    3    1    5    4
 0.1133416410989001    3    1    5    5
 0.005669362966817054    3    1    6    1
 -0.005530853278533112    3    1    6    2
 0.007669225238236301    3    1    6    3
 -0.008221566649512714    3    1    6    4
 0.003254997839554157    3    1    6    5
 0.009425673910630998    3    1    6    6
 0.01839727205308211    3    1    7    1
 -0.003808363337228668    3    1    7    2
 0.01928179277473269    3    1    7    3
 -0.01679321599911089    3    1    7    4
 0.01982332691821529    3    1    7    5
 0.008171713205016687    3    1    7    6
 0.02633223671754643    3    1    7    7
 0.0609629509958598    3    2    1    1
 0.015295172059482    3    2    2    1
 0.04471369203053498    3    2    2    2
 0.03825558654689803    3    2    3    1
 0.05281200287671318    3    2    3    2
 0.06509302621320508    3    2    3    3
 -0.03394665162562845    3    2    4    1
 0.01877079811025102    3    2    4    2
 0.005823421718289419    3    2    4    3
 0.06403890166420016    3    2    4    4
 -0.0184461143857438    3    2    5    1
 -0.01269775835499    3    2    5    2
 0.00450476181368499    3    2    5    3
 0.001119567493708533    3    2    5    4
 0.10674148499494    3    2    5    5
 0.00860869937120908    3    2    6    1
 -0.01682436830766749    3    2    6    2
 -0.01818012605369188    3    2    6    3
 -0.01911976369953282    3    2    6    4
 -0.01433476912670034    3    2    6    5
 0.03034875620498538    3    2    6    6
 0.00692103079354697    3    2    7    1
 -0.003265478661196075    3    2    7    2
 -0.007890587086229207    3    2    7    3
 -0.005174429742024853    3    2    7    4
 0.01181572559662311    3    2    7    5
 0.009608169444645135    3    2    7    6
 0.009885626888624122    3    2    7    7
 0.620275050119292    3    3    1    1
 0.08195905676468591    3    3    2    1
 0.5973403289879453    3    3    2    2
 0.07141511270648709    3    3    3    1
 0.06509302621320498    3    3    3    2
 0.9643830170465209    3    3    3    3
 -0.14929567703311    3    3    4    1
 0.1504260591106714    3    3    4    2
 -0.0006380786341617922    3    3    4    3
 0.9199872374729634    3    3    4    4
 -0.04949035826760727    3    3    5    1
 -0.03276149405438122    3    3    5    2
 -0.02653210126645911    3    3    5    3
 2.719977827004682e-05    3    3    5    4
 1.151505923368553    3    3    5    5
 0.0793958868895497    3    3    6    1
 0.0002879129373876674    3    3    6    2
 -0.1526281635026083    3    3    6    3
 0.06572393859233733    3    3    6    4
 -0.0684978756885166    3    3    6    5
 0.6126462358642126    3    3    6    6
 0.0005689239977900527    3    3    7    1
 -0.06633526269478369    3    3    7    2
 0.1651839280159507    3    3    7    3
 0.06863060508952337    3    3    7    4
 0.01279694455896808    3    3    7    5
 0.06827379435431685    3    3    7    6
 0.6012791612855388    3    3    7    7
 -0.1156684996303801    4    1    1    1
 -0.02061869962516471    4    1    2    1
 -0.06511444083764691    4    1    2    2
 -0.02130977585340246    4    1    3    1
 -0.03394665162562845    4    1    3    2
 -0.1492956770331101    4    1    3    3
 0.08997533403570057    4    1    4    1
 -0.01758672328299476    4    1    4    2
 0.0008667671308115255    4    1    4    3
 -0.1572987473548157    4    1    4    4
 0.02839436616524084    4    1    5    1
 0.01434407479622624    4    1    5    2
 0.003499076427125109    4    1    5    3
 0.004161704431860619    4    1    5    4
 -0.2362394781870684    4    1    5    5
 -0.02831600528956669    4    1    6    1
 0.01533760424853766    4    1    6    2
 0.05564025945756845    4    1    6    3
 0.01024841196221079    4    1    6    4
 0.03754181734335966    4    1    6    5
 -0.08986913157613971    4    1    6    6
 0.00699296765242496    4    1    7    1
 0.01822908490116398    4    1    7    2
 -0.02102344552859637    4    1    7    3
 -0.01935836168856369    4    1    7    4
 -0.002608022101079938    4    1    7    5
 -0.0181839722493606    4    1    7    6
 -0.06292888193619041    4    1    7    7
 0.06764682433058432    4    2    1    1
 0.01975357236271439    4    2    2    1
 0.09992591064868993    4    2    2    2
 0.03574588396310838    4    2    3    1
 0.01877079811025113    4    2    3    2
 0.1504260591106712    4    2    3    3
 -0.01758672328299487    4    2    4    1
 0.08802903133921113    4    2    4    2
 0.0006744098522727953    4    2    4    3
 0.1611848707711563    4    2    4    4
 -0.01018428915790255    4    2    5    1
 -0.01273494713512251    4    2    5    2
 -0.01182426100517317    4    2    5    3
 0.008530153771610146    4    2    5    4
 0.2359651928313224    4    2    5    5
 0.01914103151495746    4    2    6    1
 0.007974376553135114    4    2    6    2
 -0.02004093643656317    4    2    6    3
 0.01893638300034129    4    2    6    4
 0.0006192149454410129    4    2    6    5
 0.05969147454746038    4    2    6    6
 0.01554137699851111    4    2    7    1
 -0.01749241047354589    4    2    7    2
 0.05784879809711795    4    2    7    3
 -0.005627271159672374    4    2    7    4
 0.01804152607732927    4    2    7    5
 0.01492708126597726    4    2    7    6
 0.07727357493472901    4    2    7    7
 -0.002350180702147939    4    3    1    1
 2.454313039870237e-06    4    3    2    1
 0.001916326502406912    4    3    2    2
 -0.004302383959425735    4    3    3    1
 0.005823421718289495    4    3    3    2
 -0.0006380786341614022    4    3    3    3
 0.0008667671308115546    4    3    4    1
 0.0006744098522726569    4    3    4    2
 0.02062865547204661    4    3    4    3
 -0.0005982808978904276    4    3    4    4
 -0.0002387596727444172    4    3    5    1
 -0.0005685855784555639    4    3    5    2
 0.0004018196110203456    4    3    5    3
 -0.0003451684150879216    4    3    5    4
 -0.0004066336788351859    4    3    5    5
 0.002291715797728979    4    3    6    1
 -0.003348497327055355    4    3    6    2
 0.001735189016579444    4    3    6    3
 -0.00535505446548571    4    3    6    4
 -0.001092108141507641    4    3    6    5
 -0.002339478349919206    4    3    6    6
 -0.002498901471394578    4    3    7    1
 0.002796854499258193    4    3    7    2
 0.0008448812693001577    4    3    7    3
 0.004997175547930636    4    3    7    4
 -0.0003011442081170399    4    3    7    5
 0.0005133348718813607    4    3    7    6
 0.002418433904545269    4    3    7    7
 0.6234637701265673    4    4    1    1
 0.07429727219950151    4    4    2    1
 0.6018693842542768    4    4    2    2
 0.07061210571080025    4    4    3    1
 0.06403890166420029    4    4    3    2
 0.9199872374729617    4    4    3    3
 -0.1572987473548161    4    4    4    1
 0.1611848707711567    4    4    4    2
 -0.0005982808978902049    4    4    4    3
 0.9584325737005647    4    4    4    4
 -0.0486387140024329    4    4    5    1
 -0.03228769943016034    4    4    5    2
 -0.02440797329804634    4    4    5    3
 0.0008571216270359559    4    4    5    4
 1.136541380772425    4    4    5    5
 0.07971184893767855    4    4    6    1
 0.002951377856005281    4    4    6    2
 -0.1408928572877759    4    4    6    3
 0.067039838323108    4    4    6    4
 -0.06725544609634876    4    4    6    5
 0.6063624390337199    4    4    6    6
 -0.0006790961721873292    4    4    7    1
 -0.06483209981583732    4    4    7    2
 0.1531749664092598    4    4    7    3
 0.0692176749279942    4    4    7    4
 0.01503398025190429    4    4    7    5
 0.07523153229652435    4    4    7    6
 0.5932510709182744    4    4    7    7
 -0.04383489096228586    5    1    1    1
 -0.008183969070954804    5    1    2    1
 -0.02797756824018225    5    1    2    2
 -0.012026104389752    5    1    3    1
 -0.01844611438574383    5    1    3    2
 -0.04949035826760745    5    1    3    3
 0.02839436616524085    5    1    4    1
 -0.01018428915790253    5    1    4    2
 -0.0002387596727443772    5    1    4    3
 -0.04863871400243277    5    1    4    4
 0.03029441774711539    5    1    5    1
 0.01723455861845388    5    1    5    2
 0.01177880185597003    5    1    5    3
 -0.005572604146597977    5    1    5    4
 -0.1807389325632945    5    1    5    5
 -0.01101278094872978    5    1    6    1
 0.006194393925213841    5    1    6    2
 0.02045010943361386    5    1    6    3
 0.008147611579044388    5    1    6    4
 0.02028611431051782    5    1    6    5
 -0.03313960922336004    5    1    6    6
 0.00152588962555082    5    1    7    1
 0.00534861037313973    5    1    7    2
 -0.002234342836448122    5    1    7    3
 -0.001893793566315829    5    1    7    4
 -0.008951496886920493    5    1    7    5
 -0.003630268459185261    5    1    7    6
 -0.01698690149112109    5    1    7    7
 -0.02539757081622006    5    2    1    1
 -0.004560588832137097    5    2    2    1
 -0.02342428293473183    5    2    2    2
 -0.01347568042014222    5    2    3    1
 -0.01269775835498998    5    2    3    2
 -0.03276149405438132    5    2    3    3
 0.01434407479622623    5    2    4    1
 -0.01273494713512251    5    2    4    2
 -0.0005685855784556041    5    2    4    3
 -0.03228769943016027    5    2    4    4
 0.01723455861845397    5    2    5    1
 0.02430657941666898    5    2    5    2
 0.01288886746723162    5    2    5    3
 0.007235180129818072    5    2    5    4
 -0.1613555516749581    5    2    5    5
 -0.003102737659574377    5    2    6    1
 0.005323128883169931    5    2    6    2
 0.006843923738476413    5    2    6    3
 0.003151970376183606    5    2    6    4
 0.01007669790865426    5    2    6    5
 -0.01610811373378117    5    2    6    6
 -0.001400385247226068    5    2    7    1
 0.006430594692092114    5    2    7    2
 -0.007244824768537892    5    2    7    3
 0.001590643619115589    5    2    7    4
 -0.01155994691477528    5    2    7    5
 -0.004797320408812676    5    2    7    6
 -0.01600187509587862    5    2    7    7
 -0.0113882508549343    5    3    1    1
 -0.009041200292235697    5    3    2    1
 -0.01897134833480854    5    3    2    2
 -0.0005455134556199403    5    3    3    1
 0.004504761813684963    5    3    3    2
 -0.02653210126645929    5    3    3    3
 0.003499076427125081    5    3    4    1
 -0.01182426100517315    5    3    4    2
 0.0004018196110203896    5    3    4    3
 -0.02440797329804637    5    3    4    4
 0.01177880185597006    5    3    5    1
 0.01288886746723157    5    3    5    2
 0.03420145832518288    5    3    5    3
 0.0003696929261184269    5    3    5    4
 -0.1435167626958965    5    3    5    5
 0.0004647177983964132    5    3    6    1
 -0.007064152555919538    5    3    6    2
 0.005084282149189066    5    3    6    3
 -0.01100194633423892    5    3    6    4
 -0.0009147526179457402    5    3    6    5
 -0.004568237846353635    5    3    6    6
 0.007155160436565658    5    3    7    1
 0.006870451050782433    5    3    7    2
 -0.01803759872431288    5    3    7    3
 -0.007314825415081188    5    3    7    4
 0.003688448701693554    5    3    7    5
 0.001813524725784546    5    3    7    6
 -0.01949077126038146    5    3    7    7
 0.006767346823053742    5    4    1    1
 0.002590078219707876    5    4    2    1
 0.003919405097435985    5    4    2    2
 0.005663463390384227    5    4    3    1
 0.001119567493708548    5    4    3    2
 2.71997782700326e-05    5    4    3    3
 0.004161704431860621    5    4    4    1
 0.008530153771610165    5    4    4    2
 -0.0003451684150878883    5    4    4    3
 0.0008571216270358837    5    4    4    4
 -0.005572604146597977    5    4    5    1
 0.007235180129818071    5    4    5    2
 0.0003696929261184133    5    4    5    3
 0.02232926635874    5    4    5    4
 -0.006044761370342519    5    4    5    5
 0.007134069832382782    5    4    6    1
 0.005609876391532075    5    4    6    2
 0.004868852359873794    5    4    6    3
 -0.003909236507169583    5    4    6    4
 0.01026138501654674    5    4    6    5
 -0.005735997302332896    5    4    6    6
 0.006216536290302836    5    4    7    1
 0.005170285665652715    5    4    7    2
 0.00213000404394078    5    4    7    3
 -0.007324039979975105    5    4    7    4
 0.008549063362426763    5    4    7    5
 -0.00548730648404492    5    4    7    6
 -0.007356712171986344    5    4    7    7
 0.7602351067945627    5    5    1    1
 0.1157792052145558    5    5    2    1
 0.7201144628180882    5    5    2    2
 0.1133416410988999    5    5    3    1
 0.1067414849949401    5    5    3    2
 1.151505923368553    5    5    3    3
 -0.2362394781870681    5    5    4    1
 0.2359651928313223    5    5    4    2
 -0.0004066336788342465    5    5    4    3
 1.136541380772426    5    5    4    4
 -0.1807389325632946    5    5    5    1
 -0.1613555516749577    5    5    5    2
 -0.1435167626958966    5    5    5    3
 -0.006044761370342443    5    5    5    4
 2.605586799726589    5    5    5    5
 0.1169266955531424    5    5    6    1
 0.004874605278130226    5    5    6    2
 -0.2267233714771228    5    5    6    3
 0.1066348812257647    5    5    6    4
 -0.1751394524020145    5    5    6    5
 0.7550151110131744    5    5    6    6
 -0.01234342561395212    5    5    7    1
 -0.09654649511402545    5    5    7    2
 0.2376009911682839    5    5    7    3
 0.1125818097102288    5    5    7    4
 0.07516142068040518    5    5    7    5
 0.1020616502691985    5    5    7    6
 0.7243961755134596    5    5    7    7
 0.05000243878050648    6    1    1    1
 0.009280056355781103    6    1    2    1
 0.03610550455154674    6    1    2    2
 0.005669362966817076    6    1    3    1
 0.008608699371209101    6    1    3    2
 0.07939588688954959    6    1    3    3
 -0.02831600528956668    6    1    4    1
 0.01914103151495759    6    1    4    2
 0.002291715797729231    6    1    4    3
 0.07971184893767863    6    1    4    4
 -0.01101278094872978    6    1    5    1
 -0.003102737659574388    6    1    5    2
 0.0004647177983964691    6    1    5    3
 0.007134069832382838    6    1    5    4
 0.116926695553142    6    1    5    5
 0.02476275161808091    6    1    6    1
 0.001675854159863177    6    1    6    2
 -0.02560811208882652    6    1    6    3
 9.404807591869348e-05    6    1    6    4
 -0.01186634097528174    6    1    6    5
 0.04469000167723345    6    1    6    6
 0.003117996814603003    6    1    7    1
 -0.005264885248747282    6    1    7    2
 0.01748024855601692    6    1    7    3
 0.005216547369167727    6    1    7    4
 0.005622230297181016    6    1    7    5
 0.007808494731006595    6    1    7    6
 0.03463209019258837    6    1    7    7
 -0.01355292274069781    6    2    1    1
 0.003062357277783272    6    2    2    1
 -0.000822865881858559    6    2    2    2
 -0.005530853278533118    6    2    3    1
 -0.01682436830766749    6    2    3    2
 0.0002879129373875047    6    2    3    3
 0.01533760424853771    6    2    4    1
 0.007974376553135145    6    2    4    2
 -0.003348497327055327    6    2    4    3
 0.002951377856004949    6    2    4    4
 0.006194393925213798    6    2    5    1
 0.005323128883169909    6    2    5    2
 -0.007064152555919535    6    2    5    3
 0.005609876391532071    6    2    5    4
 0.004874605278130539    6    2    5    5
 0.001675854159863187    6    2    6    1
 0.02095553239580764    6    2    6    2
 0.007420585771748173    6    2    6    3
 0.01619641124373902    6    2    6    4
 0.01008285748277095    6    2    6    5
 -0.004427794739771194    6    2    6    6
 0.0004474045976098969    6    2    7    1
 0.003809455850516105    6    2    7    2
 0.01524980510702493    6    2    7    3
 0.004589013165067643    6    2    7    4
 -0.001233936624720225    6    2    7    5
 -0.004200337668163377    6    2    7    6
 0.01317107462619767    6    2    7    7
 -0.08391063209879907    6    3    1    1
 -0.01717133996256219    6    3    2    1
 -0.05948683627235667    6    3    2    2
 0.007669225238236268    6    3    3    1
 -0.01818012605369186    6    3    3    2
 -0.1526281635026084    6    3    3    3
 0.0556402594575684    6    3    4    1
 -0.02004093643656316    6    3    4    2
 0.0017351890165794    6    3    4    3
 -0.1408928572877757    6    3    4    4
 0.02045010943361386    6    3    5    1
 0.006843923738476393    6    3    5    2
 0.005084282149189077    6    3    5    3
 0.004868852359873794    6    3    5    4
 -0.2267233714771228    6    3    5    5
 -0.02560811208882651    6    3    6    1
 0.007420585771748129    6    3    6    2
 0.08203629306628928    6    3    6    3
 -0.01796365537591111    6    3    6    4
 0.04085639975112813    6    3    6    5
 -0.1069431854116347    6    3    6    6
 0.01454407913916273    6    3    7    1
 0.01800820316996433    6    3    7    2
 -0.01903896380324691    6    3    7    3
 -0.03131776881107609    6    3    7    4
 0.006688114427707548    6    3    7    5
 -0.01970773053651929    6    3    7    6
 -0.06263286855192371    6    3    7    7
 0.00403086803117203    6    4    1    1
 0.009103835542807352    6    4    2    1
 0.02551565284664652    6    4    2    2
 -0.008221566649512823    6    4    3    1
 -0.01911976369953282    6    4    3    2
 0.06572393859233756    6    4    3    3
 0.01024841196221085    6    4    4    1
 0.01893638300034121    6    4    4    2
 -0.005355054465485718    6    4    4    3
 0.06703983832310767    6    4    4    4
 0.008147611579044345    6    4    5    1
 0.003151970376183582    6    4    5    2
 -0.01100194633423896    6    4    5    3
 -0.003909236507169584    6    4    5    4
 0.1066348812257651    6    4    5    5
 9.40480759187001e-05    6    4    6    1
 0.01619641124373905    6    4    6    2
 -0.01796365537591102    6    4    6    3
 0.05484946188013203    6    4    6    4
 -0.004583994262579819    6    4    6    5
 0.04207209442685823    6    4    6    6
 -0.007881969293773793    6    4    7    1
 -0.006097409222103397    6    4    7    2
 0.03414166205716666    6    4    7    3
 0.03556489055900145    6    4    7    4
 -0.0088362896353923    6    4    7    5
 0.0140221387850142    6    4    7    6
 0.05397146997118332    6    4    7    7
 -0.04912393632991963    6    5    1    1
 -0.006233524240200174    6    5    2    1
 -0.02376937663494279    6    5    2    2
 0.003254997839554205    6    5    3    1
 -0.01433476912670034    6    5    3    2
 -0.0684978756885167    6    5    3    3
 0.03754181734335973    6    5    4    1
 0.0006192149454410016    6    5    4    2
 -0.001092108141507508    6    5    4    3
 -0.06725544609634856    6    5    4    4
 0.02028611431051777    6    5    5    1
 0.01007669790865422    6    5    5    2
 -0.0009147526179457466    6    5    5    3
 0.01026138501654675    6    5    5    4
 -0.175139452402014    6    5    5    5
 -0.01186634097528176    6    5    6    1
 0.01008285748277096    6    5    6    2
 0.04085639975112811    6    5    6    3
 -0.004583994262579839    6    5    6    4
 0.04372490257726553    6    5    6    5
 -0.06045813179722283    6    5    6    6
 0.01052034835307987    6    5    7    1
 0.008141264397035546    6    5    7    2
 -0.001961145040990101    6    5    7    3
 -0.0207290197203186    6    5    7    4
 0.006142198292046744    6    5    7    5
 -0.01257818545611539    6    5    7    6
 -0.02934332228512973    6    5    7    7
 0.4421618146237996    6    6    1    1
 0.03545749828958489    6    6    2    1
 0.4000670964611998    6    6    2    2
 0.009425673910630978    6    6    3    1
 0.03034875620498545    6    6    3    2
 0.6126462358642119    6    6    3    3
 -0.08986913157613943    6    6    4    1
 0.05969147454746029    6    6    4    2
 -0.002339478349918632    6    6    4    3
 0.6063624390337188    6    6    4    4
 -0.03313960922336003    6    6    5    1
 -0.01610811373378116    6    6    5    2
 -0.004568237846353562    6    6    5    3
 -0.005735997302332895    6    6    5    4
 0.7550151110131749    6    6    5    5
 0.04469000167723354    6    6    6    1
 -0.004427794739771093    6    6    6    2
 -0.1069431854116345    6    6    6    3
 0.04207209442685813    6    6    6    4
 -0.06045813179722275    6    6    6    5
 0.4938402733606332    6    6    6    6
 -0.0152067533837039    6    6    7    1
 -0.03231014219974079    6    6    7    2
 0.06353080999598107    6    6    7    3
 0.05646725130981006    6    6    7    4
 -0.003371465982012907    6    6    7    5
 0.04307847915220393    6    6    7    6
 0.4261863045732154    6    6    7    7
 0.0005718462727580246    7    1    1    1
 -0.003096752077064832    7    1    2    1
 0.01370133099309431    7    1    2    2
 0.01839727205308215    7    1    3    1
 0.006921030793546991    7    1    3    2
 0.0005689239977901969    7    1    3    3
 0.006992967652424948    7    1    4    1
 0.01554137699851111    7    1    4    2
 -0.002498901471394524    7    1    4    3
 -0.000679096172187115    7    1    4    4
 0.001525889625550772    7    1    5    1
 -0.001400385247226107    7    1    5    2
 0.007155160436565682    7    1    5    3
 0.006216536290302852    7    1    5    4
 -0.01234342561395206    7    1    5    5
 0.003117996814602964    7    1    6    1
 0.000447404597609942    7    1    6    2
 0.01454407913916274    7    1    6    3
 -0.007881969293773746    7    1    6    4
 0.01052034835307985    7    1    6    5
 -0.01520675338370392    7    1    6    6
 0.0231323216333327    7    1    7    1
 0.005416873623836437    7    1    7    2
 0.004650534279795269    7    1    7    3
 -0.01746284135286743    7    1    7    4
 0.01356602830833297    7    1    7    5
 0.002455637407193832    7    1    7    6
 -0.002329160803318465    7    1    7    7
 -0.03138507517690883    7    2    1    1
 -0.0070099311328423    7    2    2    1
 -0.03395281860065748    7    2    2    2
 -0.003808363337228618    7    2    3    1
 -0.003265478661196055    7    2    3    2
 -0.06633526269478383    7    2    3    3
 0.01822908490116387    7    2    4    1
 -0.01749241047354585    7    2    4    2
 0.002796854499257991    7    2    4    3
 -0.06483209981583728    7    2    4    4
 0.005348610373139722    7    2    5    1
 0.006430594692092103    7    2    5    2
 0.006870451050782464    7    2    5    3
 0.005170285665652714    7    2    5    4
 -0.09654649511402476    7    2    5    5
 -0.005264885248747324    7    2    6    1
 0.003809455850516153    7    2    6    2
 0.01800820316996432    7    2    6    3
 -0.006097409222103368    7    2    6    4
 0.008141264397035594    7    2    6    5
 -0.03231014219974088    7    2    6    6
 0.005416873623836408    7    2    7    1
 0.02009034754500448    7    2    7    2
 -0.0198010315694073    7    2    7    3
 -0.006289205548479744    7    2    7    4
 0.000996503880761967    7    2    7    5
 -0.006526907244617398    7    2    7    6
 -0.03363808656712602    7    2    7    7
 0.06606706733460914    7    3    1    1
 0.01882286684551502    7    3    2    1
 0.08053827379568558    7    3    2    2
 0.01928179277473269    7    3    3    1
 -0.007890587086229228    7    3    3    2
 0.165183928015951    7    3    3    3
 -0.02102344552859639    7    3    4    1
 0.05784879809711793    7    3    4    2
 0.0008448812693002554    7    3    4    3
 0.1531749664092596    7    3    4    4
 -0.002234342836448089    7    3    5    1
 -0.007244824768537854    7    3    5    2
 -0.01803759872431286    7    3    5    3
 0.002130004043940773    7    3    5    4
 0.2376009911682835    7    3    5    5
 0.01748024855601686    7    3    6    1
 0.0152498051070249    7    3    6    2
 -0.01903896380324691    7    3    6    3
 0.03414166205716671    7    3    6    4
 -0.001961145040990129    7    3    6    5
 0.06353080999598094    7    3    6    6
 0.004650534279795241    7    3    7    1
 -0.01980103156940735    7    3    7    2
 0.0870628866716998    7    3    7    3
 0.02130242085613008    7    3    7    4
 0.005913972885696372    7    3    7    5
 0.01667913745109221    7    3    7    6
 0.1000395274064743    7    3    7    7
 0.02875902778371284    7    4    1    1
 0.01027206345229496    7    4    2    1
 0.01358702803397295    7    4    2    2
 -0.01679321599911088    7    4    3    1
 -0.005174429742024882    7    4    3    2
 0.06863060508952326    7    4    3    3
 -0.01935836168856371    7    4    4    1
 -0.005627271159672442    7    4    4    2
 0.004997175547930658    7    4    4    3
 0.06921767492799399    7    4    4    4
 -0.001893793566315806    7    4    5    1
 0.001590643619115614    7    4    5    2
 -0.007314825415081181    7    4    5    3
 -0.007324039979975116    7    4    5    4
 0.1125818097102286    7    4    5    5
 0.005216547369167636    7    4    6    1
 0.004589013165067666    7    4    6    2
 -0.03131776881107609    7    4    6    3
 0.03556489055900139    7    4    6    4
 -0.02072901972031865    7    4    6    5
 0.05646725130980983    7    4    6    6
 -0.01746284135286746    7    4    7    1
 -0.006289205548479754    7    4    7    2
 0.0213024208561301    7    4    7    3
 0.04984416320294941    7    4    7    4
 -0.01363554985099778    7    4    7    5
 0.01546290688794606    7    4    7    6
 0.04701673794594805    7    4    7    7
 0.01361407423484558    7    5    1    1
 0.001886959064258867    7    5    2    1
 0.0188589474554772    7    5    2    2
 0.01982332691821531    7    5    3    1
 0.01181572559662308    7    5    3    2
 0.01279694455896804    7    5    3    3
 -0.002608022101079932    7    5    4    1
 0.0180415260773293    7    5    4    2
 -0.000301144208117009    7    5    4    3
 0.01503398025190421    7    5    4    4
 -0.008951496886920507    7    5    5    1
 -0.01155994691477529    7    5    5    2
 0.003688448701693573    7    5    5    3
 0.008549063362426789    7    5    5    4
 0.07516142068040532    7    5    5    5
 0.00562223029718097    7    5    6    1
 -0.001233936624720215    7    5    6    2
 0.006688114427707549    7    5    6    3