 &FCI NORB=   7,NELEC=10,MS2=0,
  ORBSYM=1,1,1,1,1,1,1,
  ISYM=1,
 &END
 0.7040746480973725    1    1    1    1
 -0.09890894145266056    1    1    2    1
 0.6996164858484906    1    1    2    2
 0.00303346256462045    1    1    3    1
 -0.01138768182913748    1    1    3    2
 0.6815106514779221    1    1    3    3
 -0.01743810648201958    1    1    4    1
 -4.967078045577675e-05    1    1    4    2
 0.0002120428106044247    1    1    4    3
 0.6816178149624973    1    1    4    4
 -0.1644221595876325    1    1    5    1
 0.2189223811170588    1    1    5    2
 0.001441854885221594    1    1    5    3
 0.0107386813310166    1    1    5    4
 0.9410131231588612    1    1    5    5
 0.005268692798596836    1    1    6    1
 0.008108597675382207    1    1    6    2
 0.1333352257267195    1    1    6    3
 -0.1961036803157222    1    1    6    4
 0.005319631238524572    1    1    6    5
 0.5175887081016237    1    1    6    6
 -0.01033002557548018    1    1    7    1
 0.01064745008250579    1    1    7    2
 -0.1956774543088718    1    1    7    3
 -0.1330143801275797    1    1    7    4
 0.00111051038402869    1    1    7    5
 0.000103109968322807    1    1    7    6
 0.5187278580291657    1    1    7    7
 -0.09890894145266035    2    1    1    1
 0.08018636348133942    2    1    2    1
 -0.1255754180100037    2    1    2    2
 -0.008774567875523937    2    1    3    1
 -0.0006741127265975273    2    1    3    2
 -0.0573399478623854    2    1    3    3
 -0.0007657541499231319    2    1    4    1
 0.008732860867357089    2    1    4    2
 0.0001961972801356101    2    1    4    3
 -0.05698190928903931    2    1    4    4
 0.08477729238416931    2    1    5    1
 -0.1078769573481539    2    1    5    2
 -0.0001804392166603191    2    1    5    3
 0.0005151137224367816    2    1    5    4
 -0.2274971267791916    2    1    5    5
 -0.001350757229010504    2    1    6    1
 -0.01007171332062529    2    1    6    2
 -0.02272394716969423    2    1    6    3
 0.03413447601727793    2    1    6    4
 -0.005915127392639169    2    1    6    5
 -0.04444273597983382    2    1    6    6
 0.009334913281118901    2    1    7    1
 -0.005068723075401628    2    1    7    2
 0.03364023046091251    2    1    7    3
 0.0230351104220381    2    1    7    4
 -0.00446322912206858    2    1    7    5
 0.0002102547050187957    2    1    7    6
 -0.04451958935772453    2    1    7    7
 0.69961648584849    2    2    1    1
 -0.1255754180100034    2    2    2    1
 0.7981965461370756    2    2    2    2
 -0.003752174000117271    2    2    3    1
 0.01288924229129695    2    2    3    2
 0.7018020714517637    2    2    3    3
 0.009202357316216297    2    2    4    1
 0.009993582310774518    2    2    4    2
 -0.0002630700825668681    2    2    4    3
 0.7015202393350773    2    2    4    4
 -0.2052803194810077    2    2    5    1
 0.26689042780595    2    2    5    2
 0.0003482935381146687    2    2    5    3
 0.01215256576981474    2    2    5    4
 1.039015808234445    2    2    5    5
 -0.01402134908149288    2    2    6    1
 0.01787168934476187    2    2    6    2
 0.1429532071720609    2    2    6    3
 -0.2095085283789563    2    2    6    4
 0.001682105742856828    2    2    6    5
 0.5369069357645795    2    2    6    6
 -0.01576760216557033    2    2    7    1
 -0.008058012490480293    2    2    7    2
 -0.2104299373920527    2    2    7    3
 -0.1434321674195706    2    2    7    4
 0.005871324744107856    2    2    7    5
 -2.931195441973049e-05    2    2    7    6
 0.5352675439475918    2    2    7    7
 0.003033462564620411    3    1    1    1
 -0.008774567875523923    3    1    2    1
 -0.00375217400011724    3    1    2    2
 0.0573554310958664    3    1    3    1
 0.01444741569787519    3    1    3    2
 -0.007551750214761073    3    1    3    3
 6.19964294391981e-05    3    1    4    1
 -0.02517463608500818    3    1    4    2
 -0.0004792870748311374    3    1    4    3
 -0.0073123137322715    3    1    4    4
 -0.005730858064922975    3    1    5    1
 -0.0002007489110171373    3    1    5    2
 0.01773696797566456    3    1    5    3
 0.02016467781336113    3    1    5    4
 -0.04120579279234297    3    1    5    5
 0.02144257117580544    3    1    6    1
 0.01975672674582336    3    1    6    2
 -0.002830635623214401    3    1    6    3
 0.002233131369785914    3    1    6    4
 -0.006697004355321092    3    1    6    5
 -0.003141319988638154    3    1    6    6
 -0.03000430772903227    3    1    7    1
 0.0007389684513689364    3    1    7    2
 0.002208086695602732    3    1    7    3
 0.002541769003738534    3    1    7    4
 -0.02009188565945898    3    1    7    5
 -0.0007216052625173034    3    1    7    6
 -0.002332100491682643    3    1    7    7
 -0.01138768182913748    3    2    1    1
 -0.000674112726597548    3    2    2    1
 0.01288924229129694    3    2    2    2
 0.01444741569787521    3    2    3    1
 0.05009462537833005    3    2    3    2
 -0.004980279471070878    3    2    3    3
 0.02551403736128503    3    2    4    1
 4.254510570550387e-06    3    2    4    2
 -0.0003638035572360998    3    2    4    3
 -0.004375634336183614    3    2    4    4
 0.00906937466549943    3    2    5    1
 0.01084434077803888    3    2    5    2
 -0.01973088804195777    3    2    5    3
 0.01724978369947108    3    2    5    4
 -0.02442042180764681    3    2    5    5
 -0.007851896631772435    3    2    6    1
 0.01768430413819084    3    2    6    2
 -0.0003602570121066676    3    2    6    3
 0.00230320649315227    3    2    6    4
 -0.01927536678288536    3    2    6    5
 -0.001277173267344651    3    2    6    6
 -0.01801780802010216    3    2    7    1
 -0.02733011886629335    3    2    7    2
 0.001738241174266512    3    2    7    3
 0.0002056171093305902    3    2    7    4
 0.001923103616897548    3    2    7    5
 -0.0008001354453946016    3    2    7    6
 -0.0009942469693238686    3    2    7    7
 0.6815106514779208    3    3    1    1
 -0.05733994786238558    3    3    2    1
 0.7018020714517619    3    3    2    2
 -0.007551750214761104    3    3    3    1
 -0.004980279471070839    3    3    3    2
 0.7659150220200684    3    3    3    3
 -0.005577870686405858    3    3    4    1
 0.007487301804202895    3    3    4    2
 7.230861159489505e-05    3    3    4    3
 0.7355382815151511    3    3    4    4
 -0.102012921322131    3    3    5    1
 0.1380099193927615    3    3    5    2
 0.0001266232807952111    3    3    5    3
 0.001264746457293578    3    3    5    4
 0.8788523880229324    3    3    5    5
 -0.003281389635241714    3    3    6    1
 0.007609186609845473    3    3    6    2
 0.142907449320807    3    3    6    3
 -0.1985528150898064    3    3    6    4
 0.005184338943327175    3    3    6    5
 0.5488344362771084    3    3    6    6
 -0.007134627626127502    3    3    7    1
 0.001892665637551634    3    3    7    2
 -0.2097731251404638    3    3    7    3
 -0.1352355587338849    3    3    7    4
 0.003860598198464586    3    3    7    5
 -0.00765439085073946    3    3    7    6
 0.5548857062657946    3    3    7    7
 -0.01743810648201955    4    1    1    1
 -0.0007657541499231337    4    1    2    1
 0.009202357316216292    4    1    2    2
 6.199642943919871e-05    4    1    3    1
 0.02551403736128506    4    1    3    2
 -0.005577870686405894    4    1    3    3
 0.05792104634812451    4    1    4    1
 0.0144880170568042    4    1    4    2
 -0.0009138088037079051    4    1    4    3
 -0.005829302050740018    4    1    4    4
 0.01861347336089248    4    1    5    1
 0.01003237548869525    4    1    5    2
 -0.02068009063519494    4    1    5    3
 0.01773548068116152    4    1    5    4
 -0.01590689488964623    4    1    5    5
 -0.03009573341785574    4    1    6    1
 0.0008674025327439228    4    1    6    2
 -0.000975604322200515    4    1    6    3
 0.00392368118411339    4    1    6    4
 -0.01998060693941807    4    1    6    5
 -0.00292427960928053    4    1    6    6
 -0.0210805009647246    4    1    7    1
 -0.02009799019958773    4    1    7    2
 0.00286539660757589    4    1    7    3
 0.0001769007912380306    4    1    7    4
 0.006164737856438623    4    1    7    5
 0.0004799873926205582    4    1    7    6
 -0.001766868520242144    4    1    7    7
 -4.967078045580274e-05    4    2    1    1
 0.008732860867357107    4    2    2    1
 0.009993582310774532    4    2    2    2
 -0.02517463608500814    4    2    3    1
 4.254510570555198e-06    4    2    3    2
 0.007487301804202889    4    2    3    3
 0.01448801705680421    4    2    4    1
 0.04989820045433244    4    2    4    2
 -0.0003580718551615113    4    2    4    3
 0.008225431096496379    4    2    4    4
 0.008758678532089226    4    2    5    1
 0.009996480956995651    4    2    5    2
 -0.01734540522016364    4    2    5    3
 -0.01920936282320674    4    2    5    4
 0.035653541723958    4    2    5    5
 -0.01783202896382759    4    2    6    1
 -0.02669102983727551    4    2    6    2
 0.003300411747186714    4    2    6    3
 -0.002229084875759517    4    2    6    4
 0.002516149667625338    4    2    6    5
 0.003428550398678139    4    2    6    6
 0.007687926053674353    4    2    7    1
 -0.01757895865947877    4    2    7    2
 -0.003219158743953038    4    2    7    3
 -0.003409344475657115    4    2    7    4
 0.01906574184426459    4    2    7    5
 -4.127881120771495e-05    4    2    7    6
 0.004507189883661463    4    2    7    7
 0.000212042810604417    4    3    1    1
 0.0001961972801356093    4    3    2    1
 -0.0002630700825668731    4    3    2    2
 -0.0004792870748311405    4    3    3    1
 -0.0003638035572361006    4    3    3    2
 7.230861159489129e-05    4    3    3    3
 -0.0009138088037079045    4    3    4    1
 -0.0003580718551615136    4    3    4    2
 0.01513668753026063    4    3    4    3
 6.901524545229867e-05    4    3    4    4
 -0.0003644298527525804    4    3    5    1
 -0.0002980534388564235    4    3    5    2
 0.0003040882813306242    4    3    5    3
 -0.0002259714841704902    4    3    5    4
 0.0003015681803689208    4    3    5    5
 0.0008431719977722191    4    3    6    1
 -0.0003675534370424175    4    3    6    2
 -0.005538524043461639    4    3    6    3
 0.003730598445072912    4    3    6    4
 0.00079346194903092    4    3    6    5
 -0.007895503132027882    4    3    6    6
 0.001360077371972688    4    3    7    1
 0.0008247660824772105    4    3    7    2
 -0.003797219138077977    4    3    7    3
 -0.005536036040968223    4    3    7    4
 -0.0001669997359807871    4    3    7    5
 0.003103494920781395    4    3    7    6
 0.007841027046149387    4    3    7    7
 0.6816178149624973    4    4    1    1
 -0.05698190928903971    4    4    2    1
 0.7015202393350771    4    4    2    2
 -0.007312313732271446    4    4    3    1
 -0.004375634336183584    4    4    3    2
 0.7355382815151503    4    4    3    3
 -0.005829302050740044    4    4    4    1
 0.008225431096496373    4    4    4    2
 6.901524545228823e-05    4    4    4    3
 0.7656519156013322    4    4    4    4
 -0.1014884068538256    4    4    5    1
 0.1383909385106385    4    4    5    2
 -0.0004531866644538318    4    4    5    3
 0.001058584489797696    4    4    5    4
 0.8790104953472264    4    4    5    5
 -0.003876383219482402    4    4    6    1
 0.006242365169777395    4    4    6    2
 0.1353358639418617    4    4    6    3
 -0.2095518998924706    4    4    6    4
 0.005029990818631105    4    4    6    5
 0.5548852842804919    4    4    6    6
 -0.0063346749316937    4    4    7    1
 -0.0001000145898942418    4    4    7    2
 -0.1986097765030921    4    4    7    3
 -0.1427585210142149    4    4    7    4
 0.005188349502573936    4    4    7    5
 0.008089859422212711    4    4    7    6
 0.5485633416633593    4    4    7    7
 -0.1644221595876318    5    1    1    1
 0.08477729238416962    5    1    2    1
 -0.2052803194810084    5    1    2    2
 -0.005730858064922967    5    1    3    1
 0.009069374665499418    5    1    3    2
 -0.102012921322131    5    1    3    3
 0.01861347336089254    5    1    4    1
 0.008758678532089203    5    1    4    2
 -0.0003644298527525807    5    1    4    3
 -0.1014884068538258    5    1    4    4
 0.1597388915835026    5    1    5    1
 -0.1650381198882833    5    1    5    2
 -0.02138901937166412    5    1    5    3
 -0.004052623192468188    5    1    5    4
 -0.3638690728910953    5    1    5    5
 -0.008362878449513283    5    1    6    1
 -0.009610326763014159    5    1    6    2
 -0.03970592089467214    5    1    6    3
 0.05897993939972174    5    1    6    4
 -0.01594201676829171    5    1    6    5
 -0.07652618251681272    5    1    6    6
 -0.0001368884319906158    5    1    7    1
 -0.01354181474802774    5    1    7    2
 0.05803164033171913    5    1    7    3
 0.03948840710658097    5    1    7    4
 0.00760288082953199    5    1    7    5
 0.0003916602423482489    5    1    7    6
 -0.07678440648380247    5    1    7    7
 0.2189223811170581    5    2    1    1
 -0.1078769573481539    5    2    2    1
 0.2668904278059514    5    2    2    2
 -0.000200748911017139    5    2    3    1
 0.0108443407780389    5    2    3    2
 0.1380099193927621    5    2    3    3
 0.01003237548869525    5    2    4    1
 0.00999648095699569    5    2    4    2
 -0.0002980534388564287    5    2    4    3
 0.1383909385106387    5    2    4    4
 -0.1650381198882828    5    2    5    1
 0.2396490107786977    5    2    5    2
 -0.01428818765816069    5    2    5    3
 0.01539782820664627    5    2    5    4
 0.4711889502880627    5    2    5    5
 -0.01250505679982025    5    2    6    1
 0.005180999052686853    5    2    6    2
 0.05360689046103497    5    2    6    3
 -0.07858202773939262    5    2    6    4
 -0.005706359157694203    5    2    6    5
 0.1039643153480823    5    2    6    6
 -0.0124962540966313    5    2    7    1
 -0.00542846876816811    5    2    7    2
 -0.07940502923226062    5    2    7    3
 -0.05406434847215227    5    2    7    4
 0.01229864722763322    5    2    7    5
 0.0001464628082750547    5    2    7    6
 0.1036447470969934    5    2    7    7
 0.001441854885221635    5    3    1    1
 -0.0001804392166603268    5    3    2    1
 0.0003482935381146456    5    3    2    2
 0.01773696797566454    5    3    3    1
 -0.01973088804195774    5    3    3    2
 0.0001266232807952222    5    3    3    3
 -0.02068009063519494    5    3    4    1
 -0.0173454052201636    5    3    4    2
 0.0003040882813306234    5    3    4    3
 -0.0004531866644538541    5    3    4    4
 -0.02138901937166411    5    3    5    1
 -0.01428818765816066    5    3    5    2
 0.0441816824623348    5    3    5    3
 -0.0001337349318777417    5    3    5    4
 -0.009600694005035292    5    3    5    5
 0.01794159202715138    5    3    6    1
 0.004485370319738216    5    3    6    2
 -0.0007042623398706874    5    3    6    3
 -0.0009761250804911475    5    3    6    4
 0.02000273749670308    5    3    6    5
 2.022985586713729e-05    5    3    6    6
 -0.0002110007731924733    5    3    7    1
 0.01600650069135486    5    3    7    2
 -0.0004077500362277681    5    3    7    3
 0.0007370569832842307    5    3    7    4
 -0.02867875140054419    5    3    7    5
 -0.0001828069090909781    5    3    7    6
 -0.0002294140239902347    5    3    7    7
 0.01073868133101662    5    4    1    1
 0.0005151137224367825    5    4    2    1
 0.01215256576981476    5    4    2    2
 0.0201646778133611    5    4    3    1
 0.01724978369947112    5    4    3    2
 0.001264746457293579    5    4    3    3
 0.01773548068116153    5    4    4    1
 -0.01920936282320686    5    4    4    2
 -0.0002259714841704903    5    4    4    3
 0.001058584489797683    5    4    4    4
 -0.004052623192468148    5    4    5    1
 0.01539782820664633    5    4    5    2
 -0.0001337349318777612    5    4    5    3
 0.043841510509433    5    4    5    4
 -0.02493030922246186    5    4    5    5
 -0.0003229385730697071    5    4    6    1
 0.01610230698671583    5    4    6    2
 0.0008348971315099924    5    4    6    3
 -0.001878687169737951    5    4    6    4
 -0.02892816705660588    5    4    6    5
 0.002368295830546019    5    4    6    6
 -0.0181735639061405    5    4    7    1
 -0.004542016657288577    5    4    7    2
 -0.001821815898438385    5    4    7    3
 -0.001583609089956331    5    4    7    4
 -0.02010521219856683    5    4    7    5
 -0.0004071970393750456    5    4    7    6
 0.002439330125568622    5    4    7    7
 0.9410131231588613    5    5    1    1
 -0.2274971267791917    5    5    2    1
 1.039015808234447    5    5    2    2
 -0.04120579279234297    5    5    3    1
 -0.02442042180764681    5    5    3    2
 0.8788523880229335    5    5    3    3
 -0.01590689488964626    5    5    4    1
 0.03565354172395792    5    5    4    2
 0.0003015681803689154    5    5    4    3
 0.8790104953472259    5    5    4    4
 -0.3638690728910945    5    5    5    1
 0.4711889502880632    5    5    5    2
 -0.00960069400503525    5    5    5    3
 -0.0249303092224618    5    5    5    4
 1.611595154330991    5    5    5    5
 -0.02173104474095086    5    5    6    1
 -0.007263555180757548    5    5    6    2
 0.208786649216908    5    5    6    3
 -0.304770294055096    5    5    6    4
 0.03731937892518862    5    5    6    5
 0.6621011895891467    5    5    6    6
 0.008922413599851867    5    5    7    1
 0.01080140273845253    5    5    7    2
 -0.3051562584520423    5    5    7    3
 -0.207606903360044    5    5    7    4
 0.04190868903180862    5    5    7    5
 0.002060872985733323    5    5    7    6
 0.6622604670339699    5    5    7    7
 0.005268692798596794    6    1    1    1
 -0.001350757229010501    6    1    2    1
 -0.01402134908149289    6    1    2    2
 0.02144257117580541    6    1    3    1
 -0.007851896631772454    6    1    3    2
 -0.003281389635241697    6    1    3    3
 -0.03009573341785574    6    1    4    1
 -0.01783202896382765    6    1    4    2
 0.0008431719977722202    6    1    4    3
 -0.003876383219482393    6    1    4    4
 -0.008362878449513311    6    1    5    1
 -0.01250505679982027    6    1    5    2
 0.01794159202715138    6    1    5    3
 -0.0003229385730697015    6    1    5    4
 -0.02173104474095089    6    1    5    5
 0.03614338718128611    6    1    6    1
 0.009449922934467253    6    1    6    2
 -0.002017723428756783    6    1    6    3
 -0.0008088390803250967    6    1    6    4
 0.01059511767741233    6    1    6    5
 -0.005367304718096164    6    1    6    6
 0.0001435272085282903    6    1    7    1
 0.01621026147577899    6    1    7    2
 0.003173397901845234    6    1    7    3
 0.002593845725590116    6    1    7    4
 -0.01478563252368465    6    1    7    5
 -0.002459062824156975    6    1    7    6
 0.0004363418178258084    6    1    7    7
 0.008108597675382224    6    2    1    1
 -0.01007171332062532    6    2    2    1
 0.01787168934476186    6    2    2    2
 0.01975672674582332    6    2    3    1
 0.01768430413819084    6    2    3    2
 0.007609186609845486    6    2    3    3
 0.0008674025327439475    6    2    4    1
 -0.02669102983727553    6    2    4    2
 -0.0003675534370424186    6    2    4    3
 0.006242365169777447    6    2    4    4
 -0.009610326763014142    6    2    5    1
 0.005180999052686842    6    2    5    2
 0.004485370319738208    6    2    5    3
 0.01610230698671578    6    2    5    4
 -0.007263555180757574    6    2    5    5
 0.009449922934467258    6    2    6    1
 0.03419823343369035    6    2    6    2
 0.0009064744908835071    6    2    6    3
 -0.005149877408094975    6    2    6    4
 -0.01182632302494184    6    2    6    5
 0.008187356332775253    6    2    6    6
 -0.01696959508336879    6    2    7    1
 3.032920263464751e-06    6    2    7    2
 -0.004018142129193024    6    2    7    3
 -0.004334725700353535    6    2    7    4
 -0.01305600120082777    6    2    7    5
 -0.003796603026636754    6    2    7    6
 0.004809121916149728    6    2    7    7
 0.1333352257267195    6    3    1    1
 -0.02272394716969427    6    3    2    1
 0.1429532071720606    6    3    2    2
 -0.002830635623214406    6    3    3    1
 -0.0003602570121066715    6    3    3    2
 0.1429074493208071    6    3    3    3
 -0.0009756043222005113    6    3    4    1
 0.003300411747186712    6    3    4    2
 -0.005538524043461632    6    3    4    3
 0.1353358639418618    6    3    4    4
 -0.0397059208946722    6    3    5    1
 0.05360689046103491    6    3    5    2
 -0.0007042623398706885    6    3    5    3
 0.0008348971315099987    6    3    5    4
 0.2087866492169079    6    3    5    5
 -0.002017723428756782    6    3    6    1
 0.0009064744908834893    6    3    6    2
 0.05711677960086919    6    3    6    3
 -0.07235293047971719    6    3    6    4
 0.00271156067325836    6    3    6    5
 0.08955274455157333    6    3    6    6
 -0.0009453138094758316    6    3    7    1
 -0.000165757707310414    6    3    7    2
 -0.07242394399040034    6    3    7    3
 -0.04207442296250737    6    3    7    4
 0.002735642622232787    6    3    7    5
 -0.002152116433223467    6    3    7    6
 0.08644563115218412    6    3    7    7
 -0.1961036803157218    6    4    1    1
 0.03413447601727782    6    4    2    1
 -0.2095085283789566    6    4    2    2
 0.002233131369785906    6    4    3    1
 0.002303206493152268    6    4    3    2
 -0.1985528150898069    6    4    3    3
 0.003923681184113386    6    4    4    1
 -0.002229084875759523    6    4    4    2
 0.003730598445072902    6    4    4    3
 -0.2095518998924707    6    4    4    4
 0.05897993939972168    6    4    5    1
 -0.07858202773939243    6    4    5    2
 -0.0009761250804911465    6    4    5    3
 -0.001878687169737947    6    4    5    4
 -0.3047702940550957    6    4    5    5
 -0.0008088390803250841    6    4    6    1
 -0.005149877408094981    6    4    6    2
 -0.07235293047971739    6    4    6    3
 0.1139787198890699    6    4    6    4
 -0.003460090036566778    6    4    6    5
 -0.1315594272030526    6    4    6    6
 0.004291279859772452    6    4    7    1
 -0.00317298069679128    6    4    7    2
 0.09897010439243627    6    4    7    3
 0.07231401337273514    6    4    7    4
 -0.0008236899986087496    6    4    7    5
 -0.001624542652893492    6    4    7    6
 -0.1270073141619808    6    4    7    7
 0.005319631238524558    6    5    1    1
 -0.005915127392639209    6    5    2    1
 0.001682105742856836    6    5    2    2
 -0.006697004355321058    6    5    3    1
 -0.01927536678288531    6    5    3    2
 0.005184338943327182    6    5    3    3
 -0.01998060693941809    6    5    4    1
 0.002516149667625344    6    5    4    2
 0.0007934619490309203    6    5    4    3
 0.005029990818631078    6    5    4    4
 -0.01594201676829169    6    5    5    1
 -0.005706359157694178    6    5    5    2
 0.02000273749670306    6    5    5    3
 -0.02892816705660575    6    5    5    4
 0.03731937892518863    6    5    5    5
 0.01059511767741235    6    5    6    1
 -0.01182632302494186    6    5    6    2
 0.002711560673258365    6    5    6    3
 -0.003460090036566781    6    5    6    4
 0.03485637770712897    6    5    6    5
 0.0005600209378146905    6    5    6    6
 0.01516679451350548    6    5    7    1
 0.01315368848704144    6    5    7    2
 -0.002011753174448426    6    5    7    3
 -0.00030812496800671    6    5    7    4
 0.001077808909477825    6    5    7    5
 0.001168025708437774    6    5    7    6
 0.004562793601859265    6    5    7    7
 0.5175887081016231    6    6    1    1
 -0.04444273597983365    6    6    2    1
 0.53690693576458    6    6    2    2
 -0.003141319988638158    6    6    3    1
 -0.001277173267344654    6    6    3    2
 0.5488344362771079    6    6    3    3
 -0.002924279609280519    6    6    4    1
 0.003428550398678129    6    6    4    2
 -0.00789550313202789    6    6    4    3
 0.5548852842804909    6    6    4    4
 -0.07652618251681297    6    6    5    1
 0.1039643153480824    6    6    5    2
 2.022985586714113e-05    6    6    5    3
 0.002368295830546033    6    6    5    4
 0.6621011895891469    6    6    5    5
 -0.005367304718096158    6    6    6    1
 0.008187356332775241    6    6    6    2
 0.08955274455157328    6    6    6    3
 -0.1315594272030523    6    6    6    4
 0.0005600209378147075    6    6    6    5
 0.4503185277906877    6    6    6    6
 -0.007973549804129065    6    6    7    1
 -0.002902456963573657    6    6    7    2
 -0.1270346422320636    6    6    7    3
 -0.08663092786607646    6    6    7    4
 0.003502180390007554    6    6    7    5
 -0.0001260155183621719    6    6    7    6
 0.4326987203015831    6    6    7    7
 -0.01033002557548017    7    1    1    1
 0.009334913281118913    7    1    2    1
 -0.01576760216557032    7    1    2    2
 -0.03000430772903226    7    1    3    1
 -0.01801780802010215    7    1    3    2
 -0.007134627626127491    7    1    3    3
 -0.02108050096472461    7    1    4    1
 0.007687926053674328    7    1    4    2
 0.001360077371972689    7    1    4    3
 -0.006334674931693714    7    1    4    4
 -0.0001368884319906046    7    1    5    1
 -0.01249625409663127    7    1    5    2
 -0.000211000773192485    7    1    5    3
 -0.01817356390614047    7    1    5    4
 0.008922413599851875    7    1    5    5
 0.0001435272085283035    7    1    6    1
 -0.01696959508336879    7    1    6    2
 -0.0009453138094758311    7    1    6    3
 0.004291279859772452    7    1    6    4
 0.01516679451350548    7    1    6    5
 -0.007973549804129064    7    1    6    6
 0.03749187963976915    7    1    7    1
 0.009512670173894781    7    1    7    2
 0.004564438111040453    7    1    7    3
 0.004975603249699267    7    1    7    4
 0.01150495446553015    7    1    7    5
 0.003503245306737272    7    1    7    6
 -0.004904428491196396    7    1    7    7
 0.01064745008250579    7    2    1    1
 -0.005068723075401629    7    2    2    1
 -0.008058012490480278    7    2    2    2
 0.0007389684513689612    7    2    3    1
 -0.02733011886629329    7    2    3    2
 0.001892665637551623    7    2    3    3
 -0.02009799019958773    7    2    4    1
 -0.01757895865947882    7    2    4    2
 0.00082476608247721    7    2    4    3
 -0.0001000145898942388    7    2    4    4
 -0.01354181474802774    7    2    5    1
 -0.005428468768168114    7    2    5    2
 0.01600650069135481    7    2    5    3
 -0.004542016657288559    7    2    5    4
 0.01080140273845251    7    2    5    5
 0.01621026147577898    7    2    6    1
 3.032920263454451e-06    7    2    6    2
 -0.0001657577073104124    7    2    6    3
 -0.003172980696791291    7    2    6    4
 0.01315368848704144    7    2    6    5
 -0.00290245696357364    7    2    6    6
 0.009512670173894785    7    2    7    1
 0.03334252783656996    7    2    7    2
 0.0009982400851516835    7    2    7    3
 0.000884866010974197    7    2    7    4
 -0.01102347108335584    7    2    7    5
 -0.0009546696231103719    7    2    7    6
 0.003272790748648628    7    2    7    7
 -0.1956774543088719    7    3    1    1
 0.03364023046091258    7    3    2    1
 -0.2104299373920523    7    3    2    2
 0.002208086695602733    7    3    3    1
 0.001738241174266511    7    3    3    2
 -0.2097731251404639    7    3    3    3
 0.002865396607575889    7    3    4    1
 -0.00321915874395304    7    3    4    2
 -0.003797219138077962    7    3    4    3
 -0.1986097765030921    7    3    4    4
 0.05803164033171913    7    3    5    1
 -0.07940502923226052    7    3    5    2
 -0.0004077500362277705    7    3    5    3
 -0.001821815898438389    7    3    5    4
 -0.3051562584520427    7    3    5    5
 0.003173397901845238    7    3    6    1
 -0.004018142129192999    7    3    6    2
 -0.07242394399040034    7    3    6    3
 0.09897010439243607    7    3    6    4
 -0.002011753174448418    7    3    6    5
 -0.1270346422320639    7    3    6    6
 0.004564438111040464    7    3    7    1
 0.0009982400851516813    7    3    7    2
 0.1139650303468106    7    3    7    3
 0.07237925054783878    7    3    7    4
 -0.003061352666671012    7    3    7    5
 0.001456390924647066    7    3    7    6
 -0.1316495775146591    7    3    7    7
 -0.1330143801275798    7    4    1    1
 0.0230351104220381    7    4    2    1
 -0.1434321674195702    7    4    2    2
 0.002541769003738529    7    4    3    1
 0.0002056171093305897    7    4    3    2
 -0.1352355587338849    7    4    3    3
 0.0001769007912380257    7    4    4    1
 -0.003409344475657117    7    4    4    2
 -0.00553603604096821    7    4    4    3
 -0.1427585210142154    7    4    4    4
 0.03948840710658093    7    4    5    1
 -0.0540643484721522    7    4    5    2
 0.0007370569832842297    7    4    5    3
 -0.00158360908995633    7    4    5    4
 -0.2076069033600439    7    4    5    5
 0.002593845725590126    7    4    6    1
 -0.004334725700353531    7    4    6    2
 -0.04207442296250746    7    4    6    3
 0.07231401337273524    7    4    6    4
 -0.0003081249680067113    7    4    6    5
 -0.08663092786607637    7    4    6    6
 0.004975603249699275    7    4    7    1
 0.0008848660109741931    7    4    7    2
 0.07237925054783889    7    4    7    3
 0.05699657789490246    7    4    7    4
 -0.001459814928737365    7    4    7    5
 -0.002374260124726804    7    4    7    6
 -0.0897609582414044    7    4    7    7
 0.001110510384028643    7    5    1    1
 -0.004463229122068571    7    5    2    1
 0.005871324744107921    7    5    2    2
 -0.02009188565945904    7    5    3    1
 0.001923103616897504    7    5    3    2
 0.003860598198464586    7    5    3    3
 0.006164737856438624    7    5    4    1
 0.01906574184426462    7    5    4    2
 -0.0001669997359807873    7    5    4    3
 0.005188349502573927    7    5    4    4
 0.007602880829532014    7    5    5    1
 0.0122986472276332    7    5    5    2
 -0.02867875140054413    7    5    5    3